ITEM: TIMESTEP
0
ITEM: NUMBER OF ATOMS
960
ITEM: BOX BOUNDS pp pp pp
0.0000000000000000e+00 2.5000000000000000e+01
0.0000000000000000e+00 2.5000000000000000e+01
0.0000000000000000e+00 2.5000000000000000e+01
ITEM: ATOMS element xu yu zu
H 17.427 10.2478 21.0336
C 16.6039 10.8174 20.6021
H 16.9711 11.4511 19.7949
H 15.8075 10.1494 20.274
H 17.903 11.7665 22.7111
C 17.1683 12.4867 22.351
H 16.7521 13.0419 23.1916
H 17.6182 13.1425 21.6056
N 16.049 11.7097 21.6894
H 16.1627 10.1164 23.0634
C 15.4107 10.843 22.7559
H 15.1636 11.5005 23.5894
H 14.5419 10.3354 22.3369
H 15.6853 13.3108 20.4056
C 15.0709 12.7328 21.0958
H 14.7293 13.3684 21.9127
H 14.0855 11.3238 19.713
C 13.8362 12.1797 20.3403
H 13.5354 13.0036 19.6932
H 12.7297 10.9291 21.3278
O 12.745 11.8664 21.2078
H 6.56208 9.7579 4.21709
C 7.29322 9.92022 5.00904
H 7.01757 9.34778 5.89472
H 8.29689 9.68099 4.65758
H 5.2446 11.5841 4.74251
C 5.83412 11.8321 5.62517
H 5.83156 12.911 5.78034
H 5.45892 11.2896 6.49297
N 7.25918 11.3893 5.36544
H 7.18342 11.8898 3.32012
C 7.77219 12.1911 4.18654
H 7.58887 13.2407 4.41621
H 8.82618 11.9642 4.02622
H 7.53756 11.0608 7.40468
C 8.05966 11.6479 6.6492
H 7.97381 12.7102 6.87773
H 9.7335 10.3022 6.1439
C 9.55863 11.2554 6.64287
H 9.80275 11.14 7.69889
H 10.6269 12.0162 5.21338
O 10.3996 12.2719 6.09426
H 15.1404 8.65524 2.70077
C 14.1273 8.64139 2.29893
H 14.0436 9.34754 1.47282
H 13.8451 7.62942 2.00843
H 14.7138 10.2227 4.34638
C 13.6894 10.3851 4.01114
H 13.0556 10.6285 4.86384
H 13.6627 11.1582 3.24326
N 13.1945 9.08986 3.40127
H 14.237 7.88617 4.78115
C 13.1962 8.04554 4.49915
H 12.6426 8.46906 5.33717
H 12.7604 7.12134 4.1196
H 11.9451 10.1601 2.12162
C 11.7907 9.35539 2.84045
H 11.1716 9.70671 3.66593
H 11.7454 7.59645 1.50928
C 11.0708 8.1756 2.13987
H 10.335 8.66198 1.49948
H 10.9048 6.54692 3.1807
O 10.3793 7.32189 3.0533
H 14.0516 20.8077 7.16241
C 14.8103 21.4554 6.72316
H 14.6014 21.6106 5.66468
H 14.877 22.3938 7.27363
H 15.2207 18.8377 6.84782
C 16.0293 19.3325 6.30983
H 16.9705 18.8172 6.50154
H 15.797 19.3849 5.24618
N 16.1398 20.7455 6.84413
H 15.6647 20.1793 8.81726
C 16.5096 20.6451 8.31011
H 17.3846 19.9979 8.3703
H 16.6864 21.6445 8.70762
H 16.8347 21.4005 4.99155
C 17.2098 21.4664 6.01283
H 18.1342 20.8968 6.10783
H 16.5847 23.5087 6.5665
C 17.4967 22.9498 6.35704
H 17.9417 23.348 5.44516
H 17.9543 23.3165 8.20624
O 18.4367 23.1041 7.42192
H 21.4106 11.3942 16.1741
C 20.9134 12.0008 15.4172
H 21.5902 12.7748 15.0552
H 20.5352 11.3719 14.6112
H 20.6557 12.6202 17.9836
C 20.1711 13.366 17.3534
H 19.2858 13.7556 17.8559
H 20.8773 14.154 17.0918
N 19.7329 12.6757 16.0783
H 19.2471 10.8764 17.0612
C 18.7178 11.619 16.4642
H 17.9612 12.1162 17.0712
H 18.312 11.1611 15.5622
H 19.963 14.4588 15.0241
C 19.1443 13.7512 15.155
H 18.323 14.2266 15.6913
H 19.3037 12.5658 13.301
C 18.6372 13.2935 13.7642
H 18.6555 14.2049 13.1667
H 17.3341 11.8564 13.7691
O 17.2966 12.8003 13.7933
H 12.2827 14.1903 1.66916
C 12.485 14.2972 2.73489
H 12.094 13.4363 3.27726
H 13.5507 14.4465 2.90864
H 10.2902 15.3634 1.69446
C 10.3051 15.4845 2.7776
H 9.8326 16.4281 3.05055
H 9.82855 14.6303 3.25852
N 11.7545 15.5309 3.21509
H 12.379 16.577 1.49605
C 12.3803 16.7518 2.57195
H 11.7382 17.5988 2.81368
H 13.401 16.869 2.93587
H 11.2348 14.6978 5.05355
C 11.7675 15.5985 4.74837
H 11.2013 16.4832 5.03986
H 13.8647 14.9546 4.9828
C 13.1506 15.6353 5.44608
H 12.9432 15.2805 6.45564
H 14.3557 17.0393 4.86311
O 13.6964 16.9528 5.53451
H 22.3011 23.2762 4.28789
C 22.6616 22.37 3.80107
H 23.3639 22.6264 3.00783
H 23.0954 21.6893 4.53356
H 20.4165 23.5117 2.96899
C 20.6834 22.6691 2.33113
H 19.7798 22.1738 1.9756
H 21.3198 23.0038 1.512
N 21.4684 21.6852 3.17376
H 20.3333 22.0605 4.9088
C 20.5475 21.2001 4.2749
H 19.6334 20.8553 3.79155
H 21.0497 20.4216 4.8493
H 22.5175 21.0624 1.48396
C 21.9275 20.5524 2.24549
H 21.0346 20.1179 1.79614
H 23.5138 19.7982 3.58073
C 22.7756 19.4183 2.87443
H 23.3041 18.9857 2.02493
H 21.9958 18.5321 4.41388
O 21.9809 18.3963 3.47881
H 3.20364 17.165 5.92237
C 4.00876 17.0679 6.65068
H 4.41196 16.0554 6.62868
H 4.77558 17.8225 6.47573
H 1.49581 16.667 7.39963
C 2.18385 16.4518 8.21718
H 1.72416 16.7216 9.16795
H 2.48744 15.4053 8.18805
N 3.41534 17.3113 8.01994
H 2.31883 18.9428 7.26116
C 2.97432 18.758 8.11223
H 2.41563 18.858 9.04281
H 3.84923 19.4064 8.06469
H 4.58611 15.8634 8.95624
C 4.42024 16.9289 9.1152
H 3.93163 17.0908 10.076
H 6.18522 17.7905 8.11001
C 5.78437 17.6639 9.11568
H 6.44295 16.9916 9.66563
H 5.70191 19.6017 9.15291
O 5.74353 18.9163 9.80211
H 22.8462 19.5324 10.6926
C 22.4603 20.4759 10.3067
H 21.7127 20.8805 10.9889
H 23.2755 21.176 10.1237
H 21.3584 18.1874 9.54182
C 20.8098 19.0374 9.1361
H 20.4166 18.7874 8.15069
H 20.025 19.3437 9.82777
N 21.7867 20.185 8.98459
H 23.3865 18.9269 8.43937
C 22.8387 19.7519 7.98383
H 22.3065 19.4034 7.09871
H 23.5098 20.5864 7.7808
H 20.2429 21.5508 9.29326
C 20.9874 21.4065 8.51033
H 20.4974 21.132 7.57614
H 22.5046 22.9026 9.08267
C 21.7684 22.7278 8.29809
H 21.0013 23.4989 8.36921
H 23.2977 22.6256 7.10884
O 22.3774 22.8154 7.00857
H 7.40022 15.8031 18.3828
C 8.22875 15.3374 18.9165
H 7.84713 14.6624 19.6825
H 8.8987 14.835 18.2187
H 7.30118 17.6911 19.7141
C 8.06822 17.3245 20.3962
H 8.64048 18.1626 20.794
H 7.61483 16.7235 21.1845
N 9.00554 16.4394 19.601
H 8.86637 17.6245 17.8644
C 9.65732 17.3081 18.5444
H 10.0739 18.1728 19.0611
H 10.4069 16.7253 18.0092
H 9.40263 15.3118 21.3083
C 10.0211 15.8462 20.5871
H 10.5263 16.6798 21.0748
H 10.6694 14.1955 19.2745
C 11.0874 14.8795 20.0131
H 11.4054 14.2979 20.8784
H 12.1473 15.5661 18.5404
O 12.2274 15.5575 19.482
H 4.08273 20.0961 16.1083
C 3.40363 19.8889 15.2812
H 2.91112 18.9286 15.4342
H 2.69099 20.7044 15.1582
H 5.95825 19.1988 15.0962
C 5.39805 18.8508 14.2284
H 6.0314 18.884 13.3419
H 4.99905 17.8534 14.4132
N 4.23507 19.799 14.0215
H 5.33612 21.4927 14.6202
C 4.8162 21.1654 13.7199
H 5.52783 21.0319 12.9051
H 4.00873 21.8559 13.4761
H 3.1073 18.25 13.2014
C 3.39427 19.2455 12.8629
H 4.04777 19.1697 11.9938
H 1.57406 20.3989 13.3367
C 2.12231 20.0369 12.4669
H 1.50482 19.2993 11.9544
H 2.38733 21.9138 12.054
O 2.39086 21.1081 11.5603
H 9.49064 21.9914 9.33482
C 8.5756 21.6913 8.82423
H 8.24514 20.7194 9.19074
H 7.80803 22.4574 8.93337
H 10.9336 21.1258 7.74876
C 10.1247 20.6889 7.16316
H 10.3896 20.6934 6.10584
H 9.89544 19.6872 7.52666
N 8.89849 21.5575 7.35313
H 10.0119 23.3448 7.42894
C 9.22711 22.9283 6.7974
H 9.60312 22.7759 5.78572
H 8.33705 23.5564 6.8348
H 7.66929 19.8976 7.07467
C 7.73894 20.8808 6.60936
H 8.03697 20.779 5.56584
H 6.13328 21.9668 7.66317
C 6.35464 21.5743 6.67065
H 5.65039 20.771 6.45415
H 6.31115 23.4291 6.10384
O 6.19577 22.5921 5.68059
H 10.3148 2.80083 17.106
C 9.50516 2.72068 16.3806
H 9.20964 1.67794 16.2646
H 8.66922 3.35806 16.6688
H 12.0256 2.69659 15.5538
C 11.3423 2.52499 14.7221
H 11.7464 2.97132 13.8135
H 11.1495 1.45834 14.6072
N 10.034 3.21327 15.0524
H 10.9753 4.83082 16.0204
C 10.3204 4.69735 15.1595
H 10.8411 4.98407 14.2458
H 9.38459 5.23627 15.3078
H 8.99521 1.79309 13.9353
C 9.04567 2.88188 13.9259
H 9.48949 3.22635 12.9919
H 7.22802 3.40353 15.0626
C 7.61326 3.46081 14.0445
H 7.01358 2.80521 13.4131
H 7.4937 5.38281 14.2793
O 7.5062 4.79349 13.5406
H 8.28225 7.24465 19.3991
C 7.48556 7.37769 20.131
H 7.21763 8.43174 20.2038
H 6.62999 6.74945 19.8832
H 10.0176 7.37485 20.9218
C 9.35097 7.60078 21.7541
H 9.75721 7.18547 22.6764
H 9.18632 8.67605 21.8233
N 8.02143 6.9318 21.4728
H 8.90823 5.24919 20.5662
C 8.2694 5.43763 21.429
H 8.79615 5.17899 22.3475
H 7.31852 4.91652 21.3178
H 7.03449 8.42645 22.5386
C 7.05815 7.33824 22.5965
H 7.50692 7.02478 23.539
H 5.21174 6.81248 21.5091
C 5.61028 6.79109 22.5234
H 5.03629 7.48929 23.1326
H 5.43982 4.86416 22.3773
O 5.47768 5.48544 23.0883
H 15.646 17.8419 20.9298
C 15.67 16.9306 20.3323
H 16.0151 16.0944 20.9403
H 14.6946 16.7416 19.8841
H 17.7678 18.5541 20.3486
C 17.9789 17.6524 19.7738
H 18.6388 17.8917 18.9399
H 18.3961 16.8818 20.4221
N 16.6656 17.1457 19.2147
H 15.8998 19.0828 18.8972
C 16.1313 18.2134 18.2818
H 16.9342 18.4524 17.5844
H 15.2304 17.8461 17.7902
H 17.3864 15.1909 19.2707
C 16.9557 15.8222 18.4935
H 17.7005 16.0272 17.7245
H 14.8663 15.1138 18.477
C 15.7547 15.0879 17.846
H 16.0913 14.0541 17.7693
H 14.6997 16.13 16.5952
O 15.4525 15.5622 16.5325
H 1.88213 9.81593 20.4897
C 2.95415 10.0129 20.4989
H 3.49474 9.12189 20.8182
H 3.28539 10.3706 19.524
H 1.48805 10.5885 22.6333
C 2.54566 10.7648 22.8295
H 2.66017 11.6138 23.5033
H 3.01144 9.86085 23.222
N 3.20687 11.1078 21.5106
H 1.53179 12.1656 20.7931
C 2.57567 12.3915 21.0108
H 2.63992 13.112 21.8261
H 3.08929 12.7187 20.1068
H 4.9989 10.285 22.1855
C 4.71122 11.254 21.7775
H 4.83362 12.0284 22.5348
H 5.33429 11.0331 19.6725
C 5.61836 11.5882 20.5666
H 6.60665 11.2518 20.88
H 5.12518 13.1645 19.5489
O 5.68571 12.9881 20.289
H 16.9424 7.48284 10.3662
C 16.9426 7.75773 9.31141
H 16.0045 8.24911 9.05345
H 17.8106 8.37406 9.07719
H 16.1388 5.33856 10.0449
C 16.0014 5.48532 8.97359
H 16.1644 4.54458 8.4477
H 15.0148 5.90374 8.77442
N 17.0443 6.4805 8.5085
H 18.5165 5.7588 9.83189
C 18.4032 5.8559 8.75216
H 18.384 4.86974 8.28825
H 19.178 6.50644 8.34655
H 15.7583 7.1387 7.00623
C 16.78 6.7592 7.02252
H 16.8315 5.80494 6.49828
H 17.9346 8.63741 6.93844
C 17.7129 7.77273 6.31295
H 17.1291 8.10939 5.45621
H 19.6132 7.40139 6.43228
O 18.9193 7.17826 5.83081
H 5.43139 14.6395 15.5416
C 4.56168 14.0853 15.8945
H 4.47809 14.172 16.9779
H 3.66041 14.4212 15.3818
H 6.88686 12.8435 15.5975
C 6.14337 12.1767 16.0342
H 6.31115 11.1575 15.6861
H 6.16433 12.25 17.1215
N 4.78058 12.6289 15.5518
H 5.48968 13.1781 13.6452
C 4.76141 12.4723 14.0448
H 5.0747 11.4506 13.8306
H 3.76431 12.7035 13.67
H 3.91452 11.9235 17.3114
C 3.73353 11.7507 16.2505
H 3.95743 10.7143 15.9981
H 2.02788 13.1011 15.8828
C 2.2434 12.0338 15.9337
H 1.7109 11.6164 16.7882
H 1.75792 12.0103 14.0556
O 1.78839 11.3722 14.7519
H 20.3385 12.8341 3.91491
C 19.6706 13.1571 4.71344
H 19.6695 12.4229 5.51909
H 19.9445 14.153 5.06158
H 18.7089 11.7658 2.66992
C 17.9367 11.9392 3.41942
H 16.969 12.0592 2.93231
H 17.9332 11.1306 4.15035
N 18.2745 13.2296 4.13725
H 19.0323 14.153 2.4016
C 18.2259 14.3424 3.11006
H 17.2616 14.2653 2.6079
H 18.3757 15.3005 3.60776
H 17.3554 12.5175 5.86707
C 17.2414 13.4138 5.25731
H 16.2557 13.4252 4.79217
H 18.4249 14.8718 6.41553
C 17.3859 14.6663 6.158
H 16.8534 14.3952 7.06961
H 17.4462 16.3711 5.23404
O 16.7664 15.8279 5.60259
H 19.6199 3.73847 18.6084
C 18.8667 3.30297 17.9518
H 18.6665 2.27245 18.2451
H 17.9644 3.91444 17.9467
H 21.4272 3.21521 17.2642
C 20.8139 2.66749 16.5487
H 21.2357 2.76609 15.5485
H 20.7178 1.62584 16.8551
N 19.435 3.29434 16.5506
H 20.1765 5.24628 16.8329
C 19.59 4.72506 16.0763
H 20.1413 4.68714 15.1367
H 18.6053 5.18215 15.9785
H 18.5895 1.45587 16.0515
C 18.55 2.45543 15.6186
H 19.0213 2.45482 14.6357
H 16.6278 3.18993 16.4145
C 17.0699 2.88767 15.4652
H 16.5673 1.98212 15.1253
H 16.7769 4.72831 14.927
O 16.8844 3.90376 14.478
P 9.32503 10.4414 17.8727
O 10.4674 9.60791 18.462
O 7.92186 9.87567 17.804
O 9.8902 10.8795 16.3874
H 9.17884 11.299 15.9385
O 9.27688 11.8748 18.7074
H 8.36537 12.0328 18.874
P 9.12328 19.9909 3.11411
O 9.49371 21.4649 3.30641
O 9.54956 18.9556 4.13399
O 9.68686 19.6427 1.6046
H 9.58475 18.7162 1.48304
O 7.47487 19.9138 2.93978
H 7.20486 19.1837 3.46675
P 18.1571 8.29417 18.2684
O 17.1235 9.38823 17.9825
O 18.9728 7.69869 17.1398
O 17.2949 7.14843 19.0816
H 17.859 6.40308 19.1811
O 19.1976 8.88493 19.4181
H 20.0557 8.63664 19.1254
P 8.72929 15.6688 13.5886
O 7.48468 16.5468 13.4238
O 10.1124 16.2644 13.4274
O 8.46575 14.4215 12.5435
H 9.25529 13.9118 12.5236
O 8.63374 14.9505 15.0814
H 9.49808 15.0197 15.4444
P 18.6261 7.92835 13.9164
O 19.9274 8.4743 14.5127
O 17.5147 7.44104 14.8225
O 19.1374 6.75565 12.8768
H 18.3686 6.31124 12.5685
O 18.0139 9.09779 12.9108
H 17.0925 9.12403 13.095
P 10.7943 5.59037 6.3761
O 10.7759 4.61355 5.19605
O 10.1936 5.19233 7.70813
O 10.0964 6.9524 5.76354
H 9.98075 7.54607 6.4831
O 12.3727 6.04025 6.62128
H 12.4952 6.01289 7.55286
P 12.9104 21.6287 17.8285
O 13.1584 21.2115 16.3755
O 13.78 21.0807 18.9408
O 11.3149 21.2872 18.0636
H 11.14 21.4201 18.9776
O 12.9642 23.2863 17.8833
H 13.4678 23.4917 18.65
P 10.3982 17.7453 10.0155
O 10.8102 19.2159 10.137
O 9.98887 17.1739 8.67409
O 9.2118 17.5798 11.148
H 8.84592 16.7213 11.0352
O 11.6432 16.8311 10.6219
H 11.7469 16.1213 10.0144
P 16.0055 2.52489 6.16636
O 17.4065 3.09321 6.41368
O 15.422 1.49167 7.10741
O 16.077 1.97818 4.61282
H 15.2746 1.51652 4.44963
O 14.9591 3.80971 6.07738
H 14.2079 3.55149 6.58005
P 15.0028 17.2631 13.1559
O 15.3681 18.7454 13.0287
O 14.7672 16.4242 11.9172
O 13.6938 17.2704 14.1579
H 13.3611 16.3915 14.1773
O 16.1849 16.5388 14.0678
H 16.3741 15.7294 13.6288
P 10.2484 6.0705 10.7965
O 10.4848 7.10335 9.68993
O 9.83757 6.51656 12.1842
O 11.645 5.1948 10.8149
H 11.595 4.61846 11.5558
O 9.12134 4.9909 10.2328
H 8.52978 4.8545 10.9505
P 3.36669 11.9028 9.55114
O 2.006 11.2423 9.30755
O 3.56803 12.8259 10.7348
O 3.69765 12.6495 8.11926
H 4.47174 13.1655 8.25402
O 4.49809 10.6913 9.6271
H 5.04962 10.9139 10.355
P 21.9679 3.07132 6.19489
O 20.6037 3.62052 6.62435
O 22.09 2.21012 4.95511
O 22.5171 2.29821 7.54327
H 23.3033 1.84589 7.29636
O 22.9965 4.36467 6.04358
H 23.4715 4.21032 5.24729
P 18.9601 18.097 12.6584
O 17.8882 18.4605 11.6259
O 19.6281 16.7383 12.6216
O 18.221 18.3856 14.1033
H 18.8 18.0695 14.773
O 20.1353 19.2661 12.5838
H 20.9504 18.799 12.6141
P 3.0706 16.6181 21.2215
O 2.78072 16.0421 19.8318
O 2.80072 15.7936 22.4628
O 2.24209 18.0432 21.2316
H 2.29551 18.3828 22.1065
O 4.66027 17.0937 21.238
H 4.99789 16.7975 22.0638
P 12.2262 2.5252 22.4899
O 13.2828 1.50621 22.0515
O 12.5723 3.59994 23.4993
O 10.9664 1.58717 22.9905
H 10.3335 2.16506 23.3765
O 11.6444 3.25575 21.1183
H 11.5966 4.17092 21.3275
P 17.9543 22.557 12.064
O 17.2686 23.3487 10.9459
O 19.359 22.0239 11.8732
O 16.8772 21.3572 12.407
H 17.3017 20.7748 13.0104
O 17.9284 23.5026 13.4273
H 18.786 23.418 13.8027
P 3.54877 21.6507 19.032
O 3.2994 22.49 20.2892
O 3.35074 22.2547 17.6573
O 2.60971 20.3158 19.2637
H 2.63988 19.8201 18.4657
O 5.09568 21.0585 19.1314
H 5.45942 21.1729 18.2722
P 22.1932 19.9733 15.7406
O 23.5075 20.3131 15.0307
O 20.8663 20.2242 15.055
O 22.3097 20.7735 17.1772
H 21.4765 20.689 17.604
O 22.2673 18.3749 16.1802
H 21.4242 18.02 15.9635
P 6.06298 6.98241 7.38494
O 4.93179 7.96454 7.06424
O 7.08647 6.62285 6.32814
O 5.273 5.65471 7.95994
H 5.91775 4.97884 8.06523
O 6.86153 7.56567 8.7175
H 7.77522 7.46026 8.52341
O 7.74331 23.4482 18.73
H 7.30548 23.4374 17.8789
H 7.02998 23.4998 19.3662
M 7.5072 23.4566 18.6859
O 12.7423 11.496 17.3151
H 12.056 12.1244 17.5396
H 13.5056 12.0367 17.1119
M 12.7581 11.7358 17.3194
O 13.745 9.13687 11.5443
H 13.7849 8.20757 11.3184
H 14.6314 9.35143 11.8351
M 13.935 8.99027 11.5576
O 2.3899 8.76422 10.4356
H 1.99646 7.98019 10.0525
H 3.10676 8.43315 10.9766
M 2.45624 8.53551 10.468
O 18.5808 15.2521 23.4874
H 19.1155 15.2995 22.6949
H 17.7432 15.6408 23.2355
M 18.5187 15.3415 23.2732
O 14.7555 5.9561 21.4813
H 14.8089 6.77923 20.9957
H 14.7187 5.28014 20.8046
M 14.7589 5.98628 21.2429
O 18.7219 18.4131 2.88665
H 18.0749 18.5878 3.57009
H 18.3124 18.7305 2.08176
M 18.5052 18.5141 2.86174
O 4.09065 5.84237 13.7389
H 4.72962 6.29138 13.1854
H 4.60972 5.47215 14.4528
M 4.32817 5.85853 13.7718
O 22.5771 14.7769 19.5079
H 22.5771 14.131 20.2143
H 23.219 14.4457 18.8799
M 22.7088 14.5765 19.524
O 5.87813 9.15946 1.49541
H 6.66064 8.64466 1.69265
H 6.18114 10.0674 1.49848
M 6.10078 9.2401 1.5365
O 12.9488 7.53804 22.8843
H 13.0742 8.26085 23.4992
H 12.4912 6.86785 23.3919
M 12.8807 7.54884 23.1146
O 12.2019 18.8005 17.2906
H 12.6351 18.7099 18.1394
H 12.7331 18.2745 16.6927
M 12.3997 18.674 17.342
O 8.07145 4.09327 4.9695
H 8.07361 4.08117 5.92662
H 7.67567 3.25826 4.71983
M 7.99071 3.91952 5.11461
O 11.9678 15.6982 23.4495
H 11.0557 15.4131 23.5052
H 12.468 14.8867 23.3623
M 11.8833 15.4733 23.443
O 22.6255 15.8643 1.88778
H 23.5 15.8983 1.5
H 22.4186 14.9307 1.93171
M 22.7625 15.6798 1.81725
O 13.3501 23.5 1.5
H 12.5867 23.1284 1.94196
H 14.0912 22.9968 1.83736
M 13.3455 23.3206 1.65985
O 9.24141 3.89752 1.63332
H 9.32597 3.66524 2.55805
H 9.88957 4.58902 1.49932
M 9.3917 3.99171 1.79551
O 20.8599 22.9208 15.5924
H 21.5037 23.5014 15.1865
H 20.3131 23.5015 16.1215
M 20.8798 23.159 15.6177
O 9.67996 7.92861 14.8086
H 10.0298 8.66233 14.3031
H 9.24638 8.33808 15.5573
M 9.66278 8.16309 14.8584
O 12.0804 11.1911 12.2989
H 11.6498 10.5912 12.908
H 11.4056 11.4039 11.6543
M 11.8537 11.1117 12.2916
O 9.06395 19.6303 14.1378
H 9.45347 19.0145 13.5171
H 9.80433 19.9553 14.6501
M 9.2957 19.5706 14.1156
O 19.79 11.5563 10.1991
H 19.7569 12.5115 10.1484
H 20.5777 11.3702 10.7101
M 19.9447 11.714 10.2935
O 13.9649 5.36146 15.973
H 14.335 5.22659 16.8454
H 14.0908 4.52406 15.5268
M 14.0666 5.16204 16.0604
O 12.6693 8.04103 13.8255
H 12.2933 7.25774 13.4239
H 12.8179 7.79483 14.7385
M 12.6227 7.82987 13.9304
O 3.41565 5.62954 10.2031
H 4.25652 5.98199 10.4946
H 3.60973 4.72861 9.94448
M 3.62793 5.51704 10.2098
O 7.95596 15.4435 6.07304
H 8.0819 16.0163 6.82956
H 8.55928 15.783 5.41197
M 8.10554 15.6306 6.09262
O 17.9415 5.86209 22.0883
H 18.7758 5.63602 21.6772
H 18.1815 6.42271 22.8261
M 18.1618 5.93071 22.1553
O 17.1569 11.9123 10.9059
H 16.5946 11.1579 11.0819
H 16.6773 12.422 10.2529
M 16.9432 11.8621 10.808
O 12.2778 13.6909 15.2917
H 13.1744 13.7144 14.9572
H 12.2002 14.4814 15.826
M 12.4458 13.8579 15.3327
O 12.7947 20.2062 4.12272
H 12.7122 19.6875 4.92295
H 13.4676 19.7553 3.61276
M 12.9158 20.0073 4.18226
O 1.50061 7.51652 13.7282
H 1.5109 6.98755 14.5259
H 2.33573 7.98416 13.7395
M 1.67401 7.50394 13.8941
O 13.547 11.9934 9.6109
H 14.0026 11.8059 10.4316
H 13.9921 12.7649 9.26021
M 13.7318 12.1132 9.7073
O 2.44195 20.7902 3.22734
H 2.78074 20.4092 4.03744
H 1.50291 20.606 3.24986
M 2.31883 20.6743 3.39812
O 16.4623 1.87894 12.1036
H 16.4622 1.54896 11.2051
H 17.249 1.50186 12.4976
M 16.6236 1.73392 12.0001
O 23.502 2.54081 13.013
H 22.7769 2.03092 13.3742
H 23.2304 2.74353 12.1178
M 23.2976 2.47781 12.9034
O 14.4733 10.7362 14.8614
H 14.6 11.0764 13.9758
H 13.5639 10.4379 14.8761
M 14.3127 10.7448 14.6828
O 2.84746 4.50017 20.7281
H 2.29035 5.25739 20.5479
H 2.37689 4.01127 21.4032
M 2.63668 4.55521 20.8296
O 17.0961 20.3092 22.3751
H 16.1776 20.2868 22.1067
H 17.1356 19.7396 23.1434
M 16.9158 20.1878 22.4776
O 7.03495 8.11899 13.9378
H 6.28066 8.12327 14.5271
H 6.66169 8.2685 13.0692
M 6.80368 8.15053 13.8805
O 1.81651 6.26839 6.77058
H 2.08481 6.30651 5.85255
H 2.63032 6.37504 7.26308
M 2.03846 6.29808 6.6833
O 9.81892 1.55954 5.76301
H 9.773 1.50045 6.71728
H 10.7165 1.83914 5.58279
M 9.99359 1.60477 5.92177
O 9.26646 1.50627 10.8023
H 9.41317 2.141 10.101
H 8.34007 1.60251 11.0232
M 9.10654 1.6562 10.7037
O 22.6914 5.49827 14.4688
H 22.998 4.82719 15.0786
H 23.3393 5.49635 13.7642
M 22.8872 5.36023 14.4493
O 21.7702 17.7299 18.8813
H 22.6916 17.4907 18.781
H 21.2886 16.9914 18.5087
M 21.8604 17.5294 18.7843
O 12.6225 14.6402 12.1536
H 13.2049 14.1931 11.5394
H 12.0325 13.9548 12.4671
M 12.621 14.4079 12.0919
O 11.1605 6.66203 18.1441
H 10.8091 5.95609 18.6866
H 10.4066 6.98165 17.6483
M 10.9338 6.58279 18.1536
O 7.30538 2.71917 19.6307
H 6.49689 2.54088 20.1111
H 7.02998 3.25788 18.889
M 7.08307 2.7931 19.5771
O 13.3328 4.45668 3.68356
H 13.0818 3.62255 4.08034
H 14.2607 4.3526 3.47284
M 13.4716 4.26424 3.72172
O 20.8122 16.6905 6.3981
H 21.5237 16.2499 5.93351
H 20.1705 16.8934 5.71742
M 20.8265 16.6418 6.16319
O 11.2074 21.7409 11.7062
H 11.4643 22.512 11.2005
H 10.5388 22.0624 12.311
M 11.123 21.965 11.7265
O 23.0955 16.8591 12.9756
H 22.2997 16.4853 13.354
H 23.5017 16.1318 12.5041
M 23.0156 16.6333 12.9565
O 23.3203 11.1085 19.7922
H 23.0653 10.2273 20.0655
H 23.5001 11.571 20.6107
M 23.3048 11.0226 20.0162
O 18.1814 7.1751 3.08516
H 19.0415 6.82115 2.85871
H 18.0468 7.89293 2.46642
M 18.3302 7.24974 2.91181
O 12.4092 2.74564 9.29079
H 12.5079 1.95584 8.7591
H 11.6567 3.19863 8.91015
M 12.2751 2.67656 9.10366
O 7.55113 14.4316 9.94979
H 6.74692 14.186 9.49245
H 8.14839 14.7066 9.25416
M 7.50868 14.4376 9.71331
O 22.567 6.2316 8.73583
H 23.289 5.67494 8.44412
H 22.9761 6.86671 9.32368
M 22.799 6.24769 8.79657
O 10.5963 13.8414 8.34913
H 11.5049 13.5422 8.38342
H 10.6261 14.6391 7.82093
M 10.7888 13.9436 8.24782
O 14.9562 10.1536 7.0929
H 15.8461 10.4326 6.87752
H 14.4764 10.9697 7.23422
M 15.0403 10.3782 7.07771
O 3.28104 1.70423 10.9739
H 2.62297 2.39789 11.0188
H 3.92717 2.02672 10.3456
M 3.27859 1.91265 10.8542
O 22.5873 8.72798 11.9766
H 23.5049 8.55909 12.1907
H 22.6213 9.31889 11.2243
M 22.7825 8.81454 11.8662
O 18.9112 3.58422 4.14978
H 19.6798 4.07563 3.86013
H 19.2277 2.68791 4.26226
M 19.1338 3.50117 4.11344
O 8.81173 21.2196 21.752
H 9.45413 21.0329 22.4366
H 9.23618 20.9383 20.9415
M 9.03055 21.1236 21.7262
O 20.0596 17.9165 23.1127
H 19.73 18.8058 22.9834
H 20.5387 17.7188 22.308
M 20.0903 18.0584 22.9212
O 3.16043 9.82736 6.07133
H 2.56522 9.09135 6.21363
H 2.87817 10.2068 5.23913
M 2.98045 9.75423 5.92983
O 8.62908 11.4069 10.1907
H 7.71809 11.6928 10.1229
H 9.12165 12.2115 10.3529
M 8.54326 11.6306 10.2101
O 13.7012 7.92223 17.3424
H 13.6746 7.76648 18.2864
H 13.4902 8.85095 17.2463
M 13.6525 8.08077 17.5163
O 20.9297 15.5193 10.1078
H 20.012 15.2494 10.1435
H 21.418 14.6997 10.0293
M 20.8416 15.2958 10.099
O 13.8998 2.00308 1.89508
H 13.3794 2.686 1.472
H 13.26 1.47493 2.37253
M 13.6618 2.03483 1.90623
O 1.80094 14.5683 12.7097
H 1.4997 15.0568 13.4757
H 1.71227 15.1842 11.9823
M 1.72097 14.7948 12.7176
O 8.15843 12.7516 23.0169
H 7.38804 12.4582 23.5034
H 7.80415 13.2845 22.305
M 7.92775 12.8007 22.9706
O 10.4665 22.652 15.0718
H 10.3449 23.5009 14.6466
H 9.97157 22.7194 15.8883
M 10.34 22.8399 15.152
O 19.9609 3.98276 11.6877
H 20.736 4.34231 12.1192
H 19.8554 3.11182 12.0706
M 20.0983 3.87787 11.8547
O 8.07753 10.7976 12.8145
H 8.93869 10.9366 13.2086
H 7.64721 11.6508 12.8711
M 8.1659 11.0011 12.9069
O 4.46102 15.1274 11.9901
H 5.367 15.1151 11.6815
H 4.4083 15.9032 12.5485
M 4.63603 15.284 12.0413
O 18.3262 20.8514 17.5302
H 18.7957 20.3577 16.8579
H 18.7928 20.6543 18.3424
M 18.5182 20.7097 17.5589
O 3.40533 21.8267 22.9659
H 3.46573 20.8846 22.8082
H 4.29566 22.1505 22.8292
M 3.60033 21.6999 22.9055
O 12.1322 9.12387 8.71174
H 13.0581 9.29225 8.88664
H 11.9886 9.46589 7.82934
M 12.2927 9.22856 8.56662
O 16.6123 5.16161 1.88316
H 16.1869 4.3946 1.49985
H 15.9392 5.84202 1.86801
M 16.387 5.14385 1.80143
O 17.9121 2.40077 22.7092
H 17.8493 2.27553 21.7623
H 17.0252 2.63857 22.9793
M 17.7173 2.42386 22.5704
O 7.19775 1.82392 8.50296
H 6.40405 1.71621 9.02704
H 6.93683 2.40572 7.78906
M 6.98144 1.92116 8.46402
O 4.79289 17.8342 17.9636
H 5.53893 18.37 17.6942
H 4.9452 16.9849 17.5491
M 4.97715 17.7699 17.8234
O 23.0698 10.8681 13.6711
H 23.5096 10.7613 14.5145
H 23.5009 11.6224 13.2694
M 23.2484 11.0009 13.7617
O 21.5614 8.41747 21.9511
H 21.6716 8.95467 22.7356
H 20.6355 8.17469 21.9545
M 21.3941 8.47786 22.1127
O 6.95414 23.5006 13.2206
H 7.77158 23.3371 13.691
H 7.12677 23.2009 12.3281
M 7.15721 23.4056 13.134
O 20.3148 8.17545 10.2202
H 19.8506 8.64534 10.913
H 20.6117 7.36623 10.6364
M 20.2805 8.10585 10.4477
O 8.7109 20.3732 17.7702
H 8.03177 20.1898 18.4193
H 8.23524 20.7269 17.0186
M 8.47404 20.4081 17.7492
O 16.0252 21.583 16.0874
H 16.5713 22.3097 15.7874
H 15.7992 21.8092 16.9896
M 16.0909 21.7784 16.2109
O 3.23744 6.5001 17.3804
H 2.89166 7.2459 16.89
H 3.66334 6.89113 18.1432
M 3.25387 6.73328 17.4363
O 17.1537 22.9108 19.5079
H 16.791 22.0331 19.6275
H 16.4939 23.4958 19.8804
M 16.944 22.8508 19.6089
O 1.60423 12.6169 5.64071
H 2.04575 13.2917 5.12502
H 1.49866 13.0082 6.50786
M 1.67314 12.8355 5.7128
O 22.6946 10.4298 5.89732
H 21.7784 10.6975 5.96918
H 22.7656 10.0499 5.02162
M 22.5212 10.4068 5.73244
O 5.23066 5.04411 4.3379
H 4.4695 4.73533 4.82935
H 4.87544 5.68731 3.72444
M 5.00168 5.1127 4.31288
O 22.817 22.9197 19.3955
H 23.2418 22.8561 20.2509
H 23.4994 22.676 18.77
M 23.0441 22.8566 19.4427
O 14.6644 5.88321 13.2068
H 15.3876 5.51605 12.6984
H 15.0668 6.57589 13.7308
M 14.8953 5.94998 13.21
O 19.6159 21.0055 21.334
H 20.1352 21.8041 21.4283
H 20.1619 20.4255 20.8034
M 19.8344 21.0504 21.2445
O 12.8066 19.7024 12.6271
H 12.297 19.7436 13.4363
H 12.558 18.8682 12.2291
M 12.6511 19.5398 12.7115
O 18.7974 1.91744 8.73175
H 17.9064 1.59231 8.86101
H 19.1396 2.03834 9.61747
M 18.6849 1.87555 8.93994
O 14.7885 22.1689 10.8125
H 14.1039 21.7547 11.3379
H 14.3601 22.3789 9.9827
M 14.5602 22.1271 10.7501
O 7.19202 5.75775 17.1157
H 6.26184 5.77817 16.8908
H 7.52784 6.6057 16.8251
M 7.07011 5.93586 17.0099
O 20.775 11.7982 20.9017
H 21.0596 12.0849 21.7694
H 20.3645 10.9468 21.0528
M 20.7491 11.6824 21.1106
