created by fftool

8000 atoms
7600 bonds
9000 angles
10800 dihedrals
25 atom types
21 bond types
16 angle types
14 dihedral types
0.000000 45.000000 xlo xhi
0.000000 45.000000 ylo yhi
0.000000 45.000000 zlo zhi

Masses

   1    1.008  # H1
   2   11.611  # C1 DC
   3   13.607  # N4 DC
   4   11.611  # C1A DC
   5    1.008  # HC
   6   11.611  # COL DC
   7    1.008  # HO
   8   15.599  # OH DC
   9   30.574  # P00 DC
  10   15.599  # O01 DC
  11   15.599  # O02 DC
  12   15.599  # OH3 DC
  13    1.008  # HO4
  14   15.599  # OH5 DC
  15    1.008  # HO6
  16    0.400  # C1 DP
  17    0.400  # N4 DP
  18    0.400  # C1A DP
  19    0.400  # COL DP
  20    0.400  # OH DP
  21    0.400  # P00 DP
  22    0.400  # O01 DP
  23    0.400  # O02 DP
  24    0.400  # OH3 DP
  25    0.400  # OH5 DP

Bond Coeffs

   1   339.985660     1.090000  # HC-CT
   2   382.002868     1.448000  # NT-CT
   3   267.925430     1.529000  # CT-CT
   4   320.004780     1.410000  # CT-OH
   5   552.999522     0.945000  # HO-OH
   6   429.995220     1.570000  # O01-P00
   7   429.995220     1.570000  # O02-P00
   8   429.995220     1.570000  # O03-P00
   9   429.995220     1.570000  # O05-P00
  10   500.000000     0.940000  # H04-O03
  11   500.000000     0.940000  # H06-O05
  12   500.000000     0.000000  # C1 DC-DP
  13   500.000000     0.000000  # N4 DC-DP
  14   500.000000     0.000000  # C1A DC-DP
  15   500.000000     0.000000  # COL DC-DP
  16   500.000000     0.000000  # OH DC-DP
  17   500.000000     0.000000  # P00 DC-DP
  18   500.000000     0.000000  # O01 DC-DP
  19   500.000000     0.000000  # O02 DC-DP
  20   500.000000     0.000000  # OH3 DC-DP
  21   500.000000     0.000000  # OH5 DC-DP

Angle Coeffs

   1    32.994742   107.800000  # HC-CT-HC
   2    35.002390   109.500000  # HC-CT-NT
   3    51.804493   107.200000  # CT-NT-CT
   4    56.202199   109.500000  # NT-CT-CT
   5    37.500000   110.700000  # CT-CT-HC
   6    50.000000   109.500000  # CT-CT-OH
   7    35.002390   109.500000  # HC-CT-OH
   8    54.995220   108.500000  # CT-OH-HO
   9   125.000000   109.470000  # O01-P00-O02
  10   125.000000   109.470000  # O01-P00-O03
  11   125.000000   109.470000  # O01-P00-O05
  12   125.000000   109.470000  # O02-P00-O03
  13   125.000000   109.470000  # O02-P00-O05
  14   125.000000   109.470000  # O03-P00-O05
  15    50.000000   115.000000  # P00-O03-H04
  16    50.000000   115.000000  # P00-O05-H06

Dihedral Coeffs

   1     0.000000     0.000000     0.559990     0.000000  # HC-CT-NT-CT
   2     0.415989    -0.128011     0.695005     0.000000  # CT-NT-CT-CT
   3    -1.013002    -0.709011     0.472992     0.000000  # HC-CT-CT-NT
   4   -10.528561    -1.298972     0.000000     0.000000  # OH-CT-CT-NT
   5     0.000000     0.000000     0.300000     0.000000  # HC-CT-CT-HC
   6     0.000000     0.000000     0.467997     0.000000  # HC-CT-CT-OH
   7    -0.355999    -0.173996     0.491993     0.000000  # CT-CT-OH-HO
   8     0.000000     0.000000     0.450000     0.000000  # HC-CT-OH-HO
   9     0.000000     0.000000     0.000000     0.000000  # H04-O03-P00-O01
  10     0.000000     0.000000     0.000000     0.000000  # H04-O03-P00-O02
  11     0.000000     0.000000     0.000000     0.000000  # O05-P00-O03-H04
  12     0.000000     0.000000     0.000000     0.000000  # H06-O05-P00-O01
  13     0.000000     0.000000     0.000000     0.000000  # H06-O05-P00-O02
  14     0.000000     0.000000     0.000000     0.000000  # H06-O05-P00-O03

Atoms

      1       1    1   0.1300  3.359455e+01  1.442563e+01  2.038055e+01  # H1 ch+
      2       1    2   2.0663  3.250226e+01  1.453420e+01  2.024201e+01  # C1 ch+ DC
      3       1    1   0.1300  3.200536e+01  1.355388e+01  2.037222e+01  # H1 ch+
      4       1    1   0.1300  3.209913e+01  1.530330e+01  2.092992e+01  # H1 ch+
      5       1    1   0.1300  3.407709e+01  1.411218e+01  1.814345e+01  # H1 ch+
      6       1    2   2.0663  3.301032e+01  1.411353e+01  1.785083e+01  # C1 ch+ DC
      7       1    1   0.1300  3.290153e+01  1.453881e+01  1.683493e+01  # H1 ch+
      8       1    1   0.1300  3.259448e+01  1.309102e+01  1.792213e+01  # H1 ch+
      9       1    3   2.1368  3.226636e+01  1.500136e+01  1.882484e+01  # N4 ch+ DC
     10       1    1   0.1300  3.387621e+01  1.636731e+01  1.900872e+01  # H1 ch+
     11       1    2   2.0663  3.282166e+01  1.640166e+01  1.867227e+01  # C1 ch+ DC
     12       1    1   0.1300  3.277655e+01  1.664826e+01  1.759717e+01  # H1 ch+
     13       1    1   0.1300  3.224159e+01  1.709724e+01  1.930202e+01  # H1 ch+
     14       1    1   0.1300  3.054072e+01  1.383505e+01  1.856964e+01  # H1 ch+
     15       1    4   2.0461  3.077526e+01  1.491710e+01  1.847589e+01  # C1A ch+ DC
     16       1    1   0.1300  3.066347e+01  1.523803e+01  1.740974e+01  # H1 ch+
     17       1    5   0.0600  3.004923e+01  1.568348e+01  2.042598e+01  # HC ch+
     18       1    6   2.4568  2.979228e+01  1.573245e+01  1.934915e+01  # COL ch+ DC
     19       1    5   0.0600  2.881386e+01  1.521951e+01  1.920134e+01  # HC ch+
     20       1    7   0.4180  3.021362e+01  1.767300e+01  1.955849e+01  # HO ch+
     21       1    8   1.0700  2.965510e+01  1.708608e+01  1.892202e+01  # OH ch+ DC
     22       2    1   0.1300  1.626307e+01  1.778761e+01  9.224223e+00  # H1 ch+
     23       2    2   2.0663  1.693184e+01  1.706307e+01  8.722365e+00  # C1 ch+ DC
     24       2    1   0.1300  1.789350e+01  1.754883e+01  8.469095e+00  # H1 ch+
     25       2    1   0.1300  1.707011e+01  1.616263e+01  9.352709e+00  # H1 ch+
     26       2    1   0.1300  1.518029e+01  1.846743e+01  7.300385e+00  # H1 ch+
     27       2    2   2.0663  1.582816e+01  1.785397e+01  6.646500e+00  # C1 ch+ DC
     28       2    1   0.1300  1.525350e+01  1.751246e+01  5.764516e+00  # H1 ch+
     29       2    1   0.1300  1.673118e+01  1.842533e+01  6.360776e+00  # H1 ch+
     30       2    3   2.1368  1.626163e+01  1.663827e+01  7.436822e+00  # N4 ch+ DC
     31       2    1   0.1300  1.441013e+01  1.648088e+01  8.455857e+00  # H1 ch+
     32       2    2   2.0663  1.501279e+01  1.585092e+01  7.772926e+00  # C1 ch+ DC
     33       2    1   0.1300  1.446858e+01  1.569446e+01  6.825269e+00  # H1 ch+
     34       2    1   0.1300  1.529604e+01  1.490861e+01  8.271650e+00  # H1 ch+
     35       2    1   0.1300  1.805522e+01  1.657125e+01  6.349728e+00  # H1 ch+
     36       2    4   2.0461  1.724009e+01  1.584622e+01  6.560750e+00  # C1A ch+ DC
     37       2    1   0.1300  1.670575e+01  1.559002e+01  5.611531e+00  # H1 ch+
     38       2    5   0.0600  1.812663e+01  1.467661e+01  8.223084e+00  # HC ch+
     39       2    6   2.4568  1.784527e+01  1.455382e+01  7.158304e+00  # COL ch+ DC
     40       2    5   0.0600  1.877757e+01  1.439678e+01  6.568050e+00  # HC ch+
     41       2    7   0.4180  1.653673e+01  1.322993e+01  7.880895e+00  # HO ch+
     42       2    8   1.0700  1.700924e+01  1.341184e+01  6.983589e+00  # OH ch+ DC
     43       3    1   0.1300  3.878189e+01  1.156011e+01  3.016268e+01  # H1 ch+
     44       3    2   2.0663  3.823079e+01  1.228362e+01  3.079269e+01  # C1 ch+ DC
     45       3    1   0.1300  3.881731e+01  1.251689e+01  3.170179e+01  # H1 ch+
     46       3    1   0.1300  3.798056e+01  1.319227e+01  3.021048e+01  # H1 ch+
     47       3    1   0.1300  3.777764e+01  9.677492e+00  3.104752e+01  # H1 ch+
     48       3    2   2.0663  3.721422e+01  1.025842e+01  3.180165e+01  # C1 ch+ DC
     49       3    1   0.1300  3.624621e+01  9.763532e+00  3.200853e+01  # H1 ch+
     50       3    1   0.1300  3.782227e+01  1.038531e+01  3.271692e+01  # H1 ch+
     51       3    3   2.1368  3.693823e+01  1.162692e+01  3.121731e+01  # N4 ch+ DC
     52       3    1   0.1300  3.667559e+01  1.087694e+01  2.925267e+01  # H1 ch+
     53       3    2   2.0663  3.606624e+01  1.142743e+01  2.999571e+01  # C1 ch+ DC
     54       3    1   0.1300  3.520839e+01  1.080906e+01  3.031259e+01  # H1 ch+
     55       3    1   0.1300  3.576789e+01  1.241022e+01  2.959319e+01  # H1 ch+
     56       3    1   0.1300  3.697621e+01  1.245714e+01  3.314410e+01  # H1 ch+
     57       3    4   2.0461  3.624812e+01  1.245966e+01  3.230475e+01  # C1A ch+ DC
     58       3    1   0.1300  3.532036e+01  1.191148e+01  3.260630e+01  # H1 ch+
     59       3    5   0.0600  3.667145e+01  1.442838e+01  3.137617e+01  # HC ch+
     60       3    6   2.4568  3.587462e+01  1.391955e+01  3.195423e+01  # COL ch+ DC
     61       3    5   0.0600  3.579095e+01  1.442028e+01  3.294646e+01  # HC ch+
     62       3    7   0.4180  3.480441e+01  1.417085e+01  3.028733e+01  # HO ch+
     63       3    8   1.0700  3.461726e+01  1.403147e+01  3.129085e+01  # OH ch+ DC
     64       4    1   0.1300  4.194093e+01  1.724297e+01  2.697955e+01  # H1 ch+
     65       4    2   2.0663  4.122209e+01  1.640277e+01  2.701716e+01  # C1 ch+ DC
     66       4    1   0.1300  4.018596e+01  1.678951e+01  2.697518e+01  # H1 ch+
     67       4    1   0.1300  4.143190e+01  1.567696e+01  2.620695e+01  # H1 ch+
     68       4    1   0.1300  4.214789e+01  1.746735e+01  2.926921e+01  # H1 ch+
     69       4    2   2.0663  4.137921e+01  1.669894e+01  2.947489e+01  # C1 ch+ DC
     70       4    1   0.1300  4.162147e+01  1.616991e+01  3.041626e+01  # H1 ch+
     71       4    1   0.1300  4.037524e+01  1.716241e+01  2.950290e+01  # H1 ch+
     72       4    3   2.1368  4.141252e+01  1.569833e+01  2.833995e+01  # N4 ch+ DC
     73       4    1   0.1300  4.351465e+01  1.583620e+01  2.810904e+01  # H1 ch+
     74       4    2   2.0663  4.277877e+01  1.504592e+01  2.835478e+01  # C1 ch+ DC
     75       4    1   0.1300  4.294732e+01  1.467993e+01  2.938256e+01  # H1 ch+
     76       4    1   0.1300  4.281102e+01  1.424429e+01  2.759765e+01  # H1 ch+
     77       4    1   0.1300  3.936442e+01  1.532778e+01  2.860672e+01  # H1 ch+
     78       4    4   2.0461  4.027741e+01  1.469506e+01  2.857909e+01  # C1A ch+ DC
     79       4    1   0.1300  4.044777e+01  1.423166e+01  2.958329e+01  # H1 ch+
     80       4    5   0.0600  4.021085e+01  1.393743e+01  2.649610e+01  # HC ch+
     81       4    6   2.4568  4.008987e+01  1.356947e+01  2.753435e+01  # COL ch+ DC
     82       4    5   0.0600  3.903002e+01  1.325222e+01  2.766968e+01  # HC ch+
     83       4    7   0.4180  4.171613e+01  1.249072e+01  2.711166e+01  # HO ch+
     84       4    8   1.0700  4.092726e+01  1.244001e+01  2.777244e+01  # OH ch+ DC
     85       5    1   0.1300  4.350431e+01  3.120370e+01  3.216606e+01  # H1 ch+
     86       5    2   2.0663  4.240278e+01  3.116396e+01  3.207043e+01  # C1 ch+ DC
     87       5    1   0.1300  4.202838e+01  3.210250e+01  3.161892e+01  # H1 ch+
     88       5    1   0.1300  4.209613e+01  3.026949e+01  3.149325e+01  # H1 ch+
     89       5    1   0.1300  4.351533e+01  3.201084e+01  3.433034e+01  # H1 ch+
     90       5    2   2.0663  4.241412e+01  3.211019e+01  3.436332e+01  # C1 ch+ DC
     91       5    1   0.1300  4.205333e+01  3.193491e+01  3.539476e+01  # H1 ch+
     92       5    1   0.1300  4.210929e+01  3.310087e+01  3.397709e+01  # H1 ch+
     93       5    3   2.1368  4.182803e+01  3.104467e+01  3.346244e+01  # N4 ch+ DC
     94       5    1   0.1300  4.332133e+01  2.962408e+01  3.395565e+01  # H1 ch+
     95       5    2   2.0663  4.221980e+01  2.970110e+01  3.404022e+01  # C1 ch+ DC
     96       5    1   0.1300  4.192287e+01  2.971128e+01  3.510343e+01  # H1 ch+
     97       5    1   0.1300  4.173449e+01  2.889704e+01  3.346154e+01  # H1 ch+
     98       5    1   0.1300  4.019021e+01  3.229119e+01  3.305386e+01  # H1 ch+
     99       5    4   2.0461  4.030890e+01  3.125341e+01  3.343277e+01  # C1A ch+ DC
    100       5    1   0.1300  3.994292e+01  3.119131e+01  3.448841e+01  # H1 ch+
    101       5    5   0.0600  3.996156e+01  3.007974e+01  3.158367e+01  # HC ch+
    102       5    6   2.4568  3.947447e+01  3.028906e+01  3.255677e+01  # COL ch+ DC
    103       5    5   0.0600  3.853294e+01  3.085229e+01  3.236044e+01  # HC ch+
    104       5    7   0.4180  3.976972e+01  2.834061e+01  3.287841e+01  # HO ch+
    105       5    8   1.0700  3.913699e+01  2.907578e+01  3.322583e+01  # OH ch+ DC
    106       6    1   0.1300  7.404253e+00  1.262922e+01  3.206178e+01  # H1 ch+
    107       6    2   2.0663  7.876627e+00  1.224212e+01  3.298433e+01  # C1 ch+ DC
    108       6    1   0.1300  7.965855e+00  1.305297e+01  3.373228e+01  # H1 ch+
    109       6    1   0.1300  7.310963e+00  1.137284e+01  3.337371e+01  # H1 ch+
    110       6    1   0.1300  9.385618e+00  1.312883e+01  3.098461e+01  # H1 ch+
    111       6    2   2.0663  1.000168e+01  1.285668e+01  3.186213e+01  # C1 ch+ DC
    112       6    1   0.1300  1.097416e+01  1.245004e+01  3.152497e+01  # H1 ch+
    113       6    1   0.1300  1.012324e+01  1.373136e+01  3.252824e+01  # H1 ch+
    114       6    3   2.1368  9.266992e+00  1.177438e+01  3.262324e+01  # N4 ch+ DC
    115       6    1   0.1300  8.505191e+00  1.087392e+01  3.086254e+01  # H1 ch+
    116       6    2   2.0663  9.157013e+00  1.057454e+01  3.170631e+01  # C1 ch+ DC
    117       6    1   0.1300  1.017521e+01  1.035880e+01  3.133831e+01  # H1 ch+
    118       6    1   0.1300  8.706739e+00  9.731547e+00  3.225722e+01  # H1 ch+
    119       6    1   0.1300  1.012200e+01  1.245416e+01  3.441491e+01  # H1 ch+
    120       6    4   2.0461  1.007603e+01  1.147517e+01  3.389137e+01  # C1A ch+ DC
    121       6    1   0.1300  1.110283e+01  1.116996e+01  3.356778e+01  # H1 ch+
    122       6    5   0.0600  8.418548e+00  1.048390e+01  3.498108e+01  # HC ch+
    123       6    6   2.4568  9.516726e+00  1.040320e+01  3.485661e+01  # COL ch+ DC
    124       6    5   0.0600  9.996215e+00  1.064566e+01  3.583311e+01  # HC ch+
    125       6    7   0.4180  9.076768e+00  8.635743e+00  3.403831e+01  # HO ch+
    126       6    8   1.0700  9.889375e+00  9.075218e+00  3.449443e+01  # OH ch+ DC
    127       7    1   0.1300  2.301107e+01  2.289708e+01  2.868067e+01  # H1 ch+
    128       7    2   2.0663  2.243327e+01  2.195378e+01  2.870074e+01  # C1 ch+ DC
    129       7    1   0.1300  2.276993e+01  2.132209e+01  2.954484e+01  # H1 ch+
    130       7    1   0.1300  2.134678e+01  2.216591e+01  2.874304e+01  # H1 ch+
    131       7    1   0.1300  2.462408e+01  2.214402e+01  2.720867e+01  # H1 ch+
    132       7    2   2.0663  2.421139e+01  2.111794e+01  2.718665e+01  # C1 ch+ DC
    133       7    1   0.1300  2.438615e+01  2.066561e+01  2.619186e+01  # H1 ch+
    134       7    1   0.1300  2.464954e+01  2.051355e+01  2.800290e+01  # H1 ch+
    135       7    3   2.1368  2.271830e+01  2.121674e+01  2.741319e+01  # N4 ch+ DC
    136       7    1   0.1300  2.254512e+01  2.303383e+01  2.633642e+01  # H1 ch+
    137       7    2   2.0663  2.213894e+01  2.200650e+01  2.625859e+01  # C1 ch+ DC
    138       7    1   0.1300  2.249877e+01  2.152784e+01  2.533117e+01  # H1 ch+
    139       7    1   0.1300  2.103896e+01  2.202276e+01  2.634026e+01  # H1 ch+
    140       7    1   0.1300  2.273162e+01  1.932651e+01  2.832429e+01  # H1 ch+
    141       7    4   2.0461  2.216912e+01  1.978647e+01  2.748365e+01  # C1A ch+ DC
    142       7    1   0.1300  2.243884e+01  1.927788e+01  2.652409e+01  # H1 ch+
    143       7    5   0.0600  2.026771e+01  2.032999e+01  2.848693e+01  # HC ch+
    144       7    6   2.4568  2.065096e+01  1.961780e+01  2.772937e+01  # COL ch+ DC
    145       7    5   0.0600  2.055948e+01  1.858701e+01  2.814333e+01  # HC ch+
    146       7    7   0.4180  1.944913e+01  2.062293e+01  2.649147e+01  # HO ch+
    147       7    8   1.0700  1.987932e+01  1.968762e+01  2.653218e+01  # OH ch+ DC
    148       8    1   0.1300  1.462675e+01  3.991070e+01  3.582371e+01  # H1 ch+
    149       8    2   2.0663  1.514915e+01  3.912567e+01  3.640243e+01  # C1 ch+ DC
    150       8    1   0.1300  1.574689e+01  3.958709e+01  3.721155e+01  # H1 ch+
    151       8    1   0.1300  1.442439e+01  3.838202e+01  3.678837e+01  # H1 ch+
    152       8    1   0.1300  1.626524e+01  4.013183e+01  3.421059e+01  # H1 ch+
    153       8    2   2.0663  1.694591e+01  3.942297e+01  3.471836e+01  # C1 ch+ DC
    154       8    1   0.1300  1.755228e+01  3.888276e+01  3.396653e+01  # H1 ch+
    155       8    1   0.1300  1.757402e+01  3.995893e+01  3.545441e+01  # H1 ch+
    156       8    3   2.1368  1.609330e+01  3.841642e+01  3.546019e+01  # N4 ch+ DC
    157       8    1   0.1300  1.458844e+01  3.839856e+01  3.396810e+01  # H1 ch+
    158       8    2   2.0663  1.528078e+01  3.766571e+01  3.442640e+01  # C1 ch+ DC
    159       8    1   0.1300  1.599233e+01  3.729398e+01  3.366863e+01  # H1 ch+
    160       8    1   0.1300  1.471247e+01  3.685974e+01  3.492069e+01  # H1 ch+
    161       8    1   0.1300  1.760386e+01  3.819845e+01  3.690030e+01  # H1 ch+
    162       8    4   2.0461  1.704164e+01  3.750038e+01  3.624362e+01  # C1A ch+ DC
    163       8    1   0.1300  1.773861e+01  3.703124e+01  3.550449e+01  # H1 ch+
    164       8    5   0.0600  1.550257e+01  3.673827e+01  3.764639e+01  # HC ch+
    165       8    6   2.4568  1.640394e+01  3.638585e+01  3.710663e+01  # COL ch+ DC
    166       8    5   0.0600  1.718983e+01  3.614789e+01  3.786029e+01  # HC ch+
    167       8    7   0.4180  1.510975e+01  3.518851e+01  3.616933e+01  # HO ch+
    168       8    8   1.0700  1.612066e+01  3.519938e+01  3.636798e+01  # OH ch+ DC
    169       9    1   0.1300  1.470644e+01  3.582590e+01  1.290872e+01  # H1 ch+
    170       9    2   2.0663  1.534375e+01  3.621437e+01  1.209201e+01  # C1 ch+ DC
    171       9    1   0.1300  1.561568e+01  3.726814e+01  1.229327e+01  # H1 ch+
    172       9    1   0.1300  1.623459e+01  3.557005e+01  1.195599e+01  # H1 ch+
    173       9    1   0.1300  1.269664e+01  3.632742e+01  1.188653e+01  # H1 ch+
    174       9    2   2.0663  1.318732e+01  3.682965e+01  1.103177e+01  # C1 ch+ DC
    175       9    1   0.1300  1.257954e+01  3.669128e+01  1.011732e+01  # H1 ch+
    176       9    1   0.1300  1.335589e+01  3.789806e+01  1.126333e+01  # H1 ch+
    177       9    3   2.1368  1.453194e+01  3.616856e+01  1.081877e+01  # N4 ch+ DC
    178       9    1   0.1300  1.381461e+01  3.424565e+01  1.134707e+01  # H1 ch+
    179       9    2   2.0663  1.427016e+01  3.472181e+01  1.045701e+01  # C1 ch+ DC
    180       9    1   0.1300  1.354909e+01  3.472655e+01  9.621111e+00  # H1 ch+
    181       9    1   0.1300  1.522388e+01  3.422808e+01  1.020495e+01  # H1 ch+
    182       9    1   0.1300  1.530447e+01  3.797647e+01  1.008534e+01  # H1 ch+
    183       9    4   2.0461  1.524853e+01  3.693558e+01  9.700543e+00  # C1A ch+ DC
    184       9    1   0.1300  1.458964e+01  3.690064e+01  8.796760e+00  # H1 ch+
    185       9    5   0.0600  1.727893e+01  3.618893e+01  1.018769e+01  # HC ch+
    186       9    6   2.4568  1.666596e+01  3.645831e+01  9.304675e+00  # COL ch+ DC
    187       9    5   0.0600  1.712471e+01  3.735231e+01  8.822425e+00  # HC ch+
    188       9    7   0.4180  1.684226e+01  3.451943e+01  8.861099e+00  # HO ch+
    189       9    8   1.0700  1.665322e+01  3.539588e+01  8.353539e+00  # OH ch+ DC
    190      10    1   0.1300  2.777724e+00  2.068747e+01  4.004656e+01  # H1 ch+
    191      10    2   2.0663  2.359177e+00  2.028762e+01  3.910368e+01  # C1 ch+ DC
    192      10    1   0.1300  1.498303e+00  1.962730e+01  3.932222e+01  # H1 ch+
    193      10    1   0.1300  2.089626e+00  2.111493e+01  3.841801e+01  # H1 ch+
    194      10    1   0.1300  4.370939e+00  1.903525e+01  4.030641e+01  # H1 ch+
    195      10    2   2.0663  4.013185e+00  1.846757e+01  3.942699e+01  # C1 ch+ DC
    196      10    1   0.1300  4.863797e+00  1.794895e+01  3.894507e+01  # H1 ch+
    197      10    1   0.1300  3.212047e+00  1.776616e+01  3.972653e+01  # H1 ch+
    198      10    3   2.1368  3.435788e+00  1.946030e+01  3.844133e+01  # N4 ch+ DC
    199      10    1   0.1300  4.867086e+00  2.095185e+01  3.890814e+01  # H1 ch+
    200      10    2   2.0663  4.562526e+00  2.037624e+01  3.801239e+01  # C1 ch+ DC
    201      10    1   0.1300  5.392403e+00  1.972850e+01  3.768008e+01  # H1 ch+
    202      10    1   0.1300  4.201414e+00  2.105808e+01  3.722398e+01  # H1 ch+
    203      10    1   0.1300  2.096979e+00  1.799828e+01  3.775333e+01  # H1 ch+
    204      10    4   2.0461  2.850074e+00  1.865867e+01  3.727232e+01  # C1A ch+ DC
    205      10    1   0.1300  3.678206e+00  1.803985e+01  3.684404e+01  # H1 ch+
    206      10    5   0.0600  1.561003e+00  2.029336e+01  3.650851e+01  # HC ch+
    207      10    6   2.4568  2.178022e+00  1.945491e+01  3.612866e+01  # COL ch+ DC
    208      10    5   0.0600  1.498881e+00  1.871285e+01  3.564870e+01  # HC ch+
    209      10    7   0.4180  3.274791e+00  2.091368e+01  3.531860e+01  # HO ch+
    210      10    8   1.0700  3.104544e+00  1.991233e+01  3.514586e+01  # OH ch+ DC
    211      11    1   0.1300  1.462840e+01  1.007691e+01  2.609739e+01  # H1 ch+
    212      11    2   2.0663  1.464131e+01  9.005008e+00  2.637116e+01  # C1 ch+ DC
    213      11    1   0.1300  1.412193e+01  8.855180e+00  2.733691e+01  # H1 ch+
    214      11    1   0.1300  1.420191e+01  8.392581e+00  2.555930e+01  # H1 ch+
    215      11    1   0.1300  1.667505e+01  1.057767e+01  2.704405e+01  # H1 ch+
    216      11    2   2.0663  1.679915e+01  9.560647e+00  2.746104e+01  # C1 ch+ DC
    217      11    1   0.1300  1.787306e+01  9.294355e+00  2.748458e+01  # H1 ch+
    218      11    1   0.1300  1.633183e+01  9.499625e+00  2.846175e+01  # H1 ch+
    219      11    3   2.1368  1.608538e+01  8.594712e+00  2.654021e+01  # N4 ch+ DC
    220      11    1   0.1300  1.659685e+01  9.680710e+00  2.479371e+01  # H1 ch+
    221      11    2   2.0663  1.677455e+01  8.663462e+00  2.519381e+01  # C1 ch+ DC
    222      11    1   0.1300  1.785262e+01  8.513657e+00  2.537828e+01  # H1 ch+
    223      11    1   0.1300  1.633998e+01  7.905935e+00  2.451987e+01  # H1 ch+
    224      11    1   0.1300  1.569111e+01  7.332830e+00  2.816977e+01  # H1 ch+
    225      11    4   2.0461  1.617399e+01  7.202523e+00  2.717755e+01  # C1A ch+ DC
    226      11    1   0.1300  1.725932e+01  6.965851e+00  2.731252e+01  # H1 ch+
    227      11    5   0.0600  1.451258e+01  6.317702e+00  2.600532e+01  # HC ch+
    228      11    6   2.4568  1.549641e+01  6.031351e+00  2.642731e+01  # COL ch+ DC
    229      11    5   0.0600  1.532551e+01  5.267844e+00  2.722110e+01  # HC ch+
    230      11    7   0.4180  1.601079e+01  5.807957e+00  2.451091e+01  # HO ch+
    231      11    8   1.0700  1.632902e+01  5.453116e+00  2.542432e+01  # OH ch+ DC
    232      12    1   0.1300  7.672922e+00  3.217300e+01  1.988720e+01  # H1 ch+
    233      12    2   2.0663  7.793435e+00  3.126974e+01  2.051465e+01  # C1 ch+ DC
    234      12    1   0.1300  7.776092e+00  3.154830e+01  2.158563e+01  # H1 ch+
    235      12    1   0.1300  7.019113e+00  3.051809e+01  2.026428e+01  # H1 ch+
    236      12    1   0.1300  9.933241e+00  3.256256e+01  1.961353e+01  # H1 ch+
    237      12    2   2.0663  1.021937e+01  3.173639e+01  2.029117e+01  # C1 ch+ DC
    238      12    1   0.1300  1.117846e+01  3.129521e+01  1.995914e+01  # H1 ch+
    239      12    1   0.1300  1.026577e+01  3.209879e+01  2.133523e+01  # H1 ch+
    240      12    3   2.1368  9.145689e+00  3.067360e+01  2.020113e+01  # N4 ch+ DC
    241      12    1   0.1300  8.810765e+00  3.100433e+01  1.813481e+01  # H1 ch+
    242      12    2   2.0663  9.136634e+00  3.016225e+01  1.877603e+01  # C1 ch+ DC
    243      12    1   0.1300  1.017557e+01  2.988118e+01  1.853045e+01  # H1 ch+
    244      12    1   0.1300  8.427904e+00  2.932107e+01  1.869233e+01  # H1 ch+
    245      12    1   0.1300  9.527748e+00  3.011945e+01  2.218864e+01  # H1 ch+
    246      12    4   2.0461  9.495983e+00  2.957998e+01  2.121776e+01  # C1A ch+ DC
    247      12    1   0.1300  1.051711e+01  2.920085e+01  2.096138e+01  # H1 ch+
    248      12    5   0.0600  7.467048e+00  2.868801e+01  2.128934e+01  # HC ch+
    249      12    6   2.4568  8.529825e+00  2.837692e+01  2.133093e+01  # COL ch+ DC
    250      12    5   0.0600  8.732294e+00  2.796537e+01  2.234675e+01  # HC ch+
    251      12    7   0.4180  8.097937e+00  2.744008e+01  1.962129e+01  # HO ch+
    252      12    8   1.0700  8.796065e+00  2.735365e+01  2.037406e+01  # OH ch+ DC
    253      13    1   0.1300  9.544113e+00  4.294007e+01  1.463931e+01  # H1 ch+
    254      13    2   2.0663  1.028778e+01  4.299965e+01  1.382231e+01  # C1 ch+ DC
    255      13    1   0.1300  9.842370e+00  4.350013e+01  1.294139e+01  # H1 ch+
    256      13    1   0.1300  1.120796e+01  4.350755e+01  1.417242e+01  # H1 ch+
    257      13    1   0.1300  8.769973e+00  4.083458e+01  1.408857e+01  # H1 ch+
    258      13    2   2.0663  9.398246e+00  4.077499e+01  1.318008e+01  # C1 ch+ DC
    259      13    1   0.1300  9.691906e+00  3.972389e+01  1.299650e+01  # H1 ch+
    260      13    1   0.1300  8.863835e+00  4.121587e+01  1.231778e+01  # H1 ch+
    261      13    3   2.1368  1.065086e+01  4.158613e+01  1.343195e+01  # N4 ch+ DC
    262      13    1   0.1300  1.074382e+01  4.104623e+01  1.547917e+01  # H1 ch+
    263      13    2   2.0663  1.138577e+01  4.093372e+01  1.458380e+01  # C1 ch+ DC
    264      13    1   0.1300  1.149457e+01  3.986499e+01  1.432951e+01  # H1 ch+
    265      13    1   0.1300  1.235159e+01  4.144364e+01  1.473895e+01  # H1 ch+
    266      13    1   0.1300  1.077771e+01  4.202586e+01  1.138408e+01  # H1 ch+
    267      13    4   2.0461  1.146803e+01  4.158359e+01  1.213408e+01  # C1A ch+ DC
    268      13    1   0.1300  1.167687e+01  4.051560e+01  1.187341e+01  # H1 ch+
    269      13    5   0.0600  1.271602e+01  4.334060e+01  1.265635e+01  # HC ch+
    270      13    6   2.4568  1.280094e+01  4.236904e+01  1.213017e+01  # COL ch+ DC
    271      13    5   0.0600  1.298834e+01  4.257334e+01  1.105063e+01  # HC ch+
    272      13    7   0.4180  1.407767e+01  4.192961e+01  1.360121e+01  # HO ch+
    273      13    8   1.0700  1.389781e+01  4.161214e+01  1.263768e+01  # OH ch+ DC
    274      14    1   0.1300  3.233146e+01  3.121822e+01  2.804179e+01  # H1 ch+
    275      14    2   2.0663  3.242745e+01  3.216328e+01  2.860900e+01  # C1 ch+ DC
    276      14    1   0.1300  3.299249e+01  3.290576e+01  2.801373e+01  # H1 ch+
    277      14    1   0.1300  3.142904e+01  3.253827e+01  2.890865e+01  # H1 ch+
    278      14    1   0.1300  3.420555e+01  3.021774e+01  2.894872e+01  # H1 ch+
    279      14    2   2.0663  3.448660e+01  3.112249e+01  2.951976e+01  # C1 ch+ DC
    280      14    1   0.1300  3.498781e+01  3.082960e+01  3.046197e+01  # H1 ch+
    281      14    1   0.1300  3.511917e+01  3.178384e+01  2.889847e+01  # H1 ch+
    282      14    3   2.1368  3.321316e+01  3.186419e+01  2.986418e+01  # N4 ch+ DC
    283      14    1   0.1300  3.209713e+01  3.008332e+01  3.013664e+01  # H1 ch+
    284      14    2   2.0663  3.238935e+01  3.095609e+01  3.075254e+01  # C1 ch+ DC
    285      14    1   0.1300  3.304783e+01  3.063227e+01  3.157730e+01  # H1 ch+
    286      14    1   0.1300  3.149270e+01  3.149691e+01  3.109956e+01  # H1 ch+
    287      14    1   0.1300  3.426028e+01  3.368211e+01  2.982025e+01  # H1 ch+
    288      14    4   2.0461  3.361630e+01  3.316736e+01  3.056521e+01  # C1A ch+ DC
    289      14    1   0.1300  3.422350e+01  3.288919e+01  3.146304e+01  # H1 ch+
    290      14    5   0.0600  3.167985e+01  3.419872e+01  3.024303e+01  # HC ch+
    291      14    6   2.4568  3.247975e+01  3.412007e+01  3.100591e+01  # COL ch+ DC
    292      14    5   0.0600  3.297958e+01  3.511277e+01  3.108944e+01  # HC ch+
    293      14    7   0.4180  3.103830e+01  3.330295e+01  3.212020e+01  # HO ch+
    294      14    8   1.0700  3.193344e+01  3.378728e+01  3.228042e+01  # OH ch+ DC
    295      15    1   0.1300  3.237765e+01  4.352846e+01  3.220637e+01  # H1 ch+
    296      15    2   2.0663  3.253954e+01  4.250246e+01  3.258743e+01  # C1 ch+ DC
    297      15    1   0.1300  3.360951e+01  4.235276e+01  3.282751e+01  # H1 ch+
    298      15    1   0.1300  3.188287e+01  4.230426e+01  3.345734e+01  # H1 ch+
    299      15    1   0.1300  3.259254e+01  4.297786e+01  2.997336e+01  # H1 ch+
    300      15    2   2.0663  3.285415e+01  4.192624e+01  3.019539e+01  # C1 ch+ DC
    301      15    1   0.1300  3.248085e+01  4.126910e+01  2.938695e+01  # H1 ch+
    302      15    1   0.1300  3.394608e+01  4.182824e+01  3.034239e+01  # H1 ch+
    303      15    3   2.1368  3.216156e+01  4.154139e+01  3.148482e+01  # N4 ch+ DC
    304      15    1   0.1300  3.044314e+01  4.270672e+01  3.106020e+01  # H1 ch+
    305      15    2   2.0663  3.067032e+01  4.163804e+01  3.124120e+01  # C1 ch+ DC
    306      15    1   0.1300  3.045560e+01  4.104771e+01  3.033340e+01  # H1 ch+
    307      15    1   0.1300  3.012870e+01  4.127727e+01  3.213193e+01  # H1 ch+
    308      15    1   0.1300  3.371538e+01  4.019952e+01  3.191873e+01  # H1 ch+
    309      15    4   2.0461  3.261003e+01  4.011830e+01  3.183967e+01  # C1A ch+ DC
    310      15    1   0.1300  3.233931e+01  3.945842e+01  3.097744e+01  # H1 ch+
    311      15    5   0.0600  3.201861e+01  4.022698e+01  3.397409e+01  # HC ch+
    312      15    6   2.4568  3.204709e+01  3.949765e+01  3.314026e+01  # COL ch+ DC
    313      15    5   0.0600  3.278424e+01  3.870258e+01  3.339858e+01  # HC ch+
    314      15    7   0.4180  3.005985e+01  3.952712e+01  3.333284e+01  # HO ch+
    315      15    8   1.0700  3.077285e+01  3.888305e+01  3.296094e+01  # OH ch+ DC
    316      16    1   0.1300  4.027677e+01  2.913237e+01  1.881638e+01  # H1 ch+
    317      16    2   2.0663  4.094012e+01  2.861178e+01  1.953264e+01  # C1 ch+ DC
    318      16    1   0.1300  4.162260e+01  2.933872e+01  2.001292e+01  # H1 ch+
    319      16    1   0.1300  4.034188e+01  2.804559e+01  2.027345e+01  # H1 ch+