LAMMPS (29 Oct 2020)
Reading data file ...
  orthogonal box = (0.0000000 0.0000000 0.0000000) to (25.000000 25.000000 25.000000)
  1 by 1 by 2 MPI processor grid
  reading atoms ...
  1300 atoms
  scanning bonds ...
  5 = max bonds/atom
  scanning angles ...
  6 = max angles/atom
  scanning dihedrals ...
  18 = max dihedrals/atom
  reading bonds ...
  1160 bonds
  reading angles ...
  1000 angles
  reading dihedrals ...
  1080 dihedrals
Finding 1-2 1-3 1-4 neighbors ...
  special bond factors lj:    0.0      0.0      0.5     
  special bond factors coul:  0.0      0.0      0.5     
     5 = max # of 1-2 neighbors
    16 = max # of 1-3 neighbors
    22 = max # of 1-4 neighbors
    30 = max # of special neighbors
  special bonds CPU = 0.001 seconds
  read_data CPU = 0.009 seconds
960 atoms in group ATOMS
340 atoms in group CORES
340 atoms in group DRUDES
400 atoms in group WATER
560 atoms in group IL
Finding SHAKE clusters ...
      60 = # of size 2 clusters
      40 = # of size 3 clusters
      60 = # of size 4 clusters
       0 = # of frozen angles
  find clusters CPU = 0.000 seconds
  create bodies CPU = 0.000 seconds
  100 rigid bodies with 400 atoms
  0.83210114 = max distance from body owner to body atom
WARNING: Temperature for fix modify is not for group all (../fix_rigid_nh_small.cpp:1336)
WARNING: Temperature for fix modify is not for group all (../fix_nh.cpp:1428)
PPPM initialization ...
WARNING: System is not charge neutral, net charge = -0.002 (../kspace.cpp:313)
  using 12-bit tables for long-range coulomb (../kspace.cpp:328)
  G vector (1/distance) = 0.27312407
  grid = 25 25 25
  stencil order = 5
  estimated absolute RMS force accuracy = 0.003572617
  estimated relative force accuracy = 1.075883e-05
  using double precision FFTW3
  3d grid and FFT values/proc = 20480 8125
Rebuild special list taking Drude particles into account
Old max number of 1-2 to 1-4 neighbors: 27
New max number of 1-2 to 1-4 neighbors: 27 (+0)
Neighbor list info ...
  update every 1 steps, delay 0 steps, check yes
  max neighbors/atom: 2000, page size: 100000
  master list distance cutoff = 14
  ghost atom cutoff = 14
  binsize = 7, bins = 4 4 4
  5 neighbor lists, perpetual/occasional/extra = 5 0 0
  (1) pair lj/cut/coul/long, perpetual, skip from (5)
      attributes: half, newton on
      pair build: skip
      stencil: none
      bin: none
  (2) pair coul/long/cs, perpetual, skip from (5)
      attributes: half, newton on
      pair build: skip
      stencil: none
      bin: none
  (3) pair thole, perpetual, skip from (5)
      attributes: half, newton on
      pair build: skip
      stencil: none
      bin: none
  (4) pair coul/tt, perpetual, skip from (5)
      attributes: half, newton on
      pair build: skip
      stencil: none
      bin: none
  (5) neighbor class addition, perpetual
      attributes: half, newton on
      pair build: half/bin/newton
      stencil: half/bin/3d/newton
      bin: standard
Setting up Verlet run ...
  Unit style    : real
  Current step  : 0
  Time step     : 1.0
Per MPI rank memory allocation (min/avg/max) = 31.73 | 31.74 | 31.75 Mbytes
Step CPU TotEng c_TDRUDE[1] c_TDRUDE[2] Press PotEng E_vdwl Volume Density 
       0            0    211.99731     307.1631    10.133237   -7.7821476   -396.46111   -11.798048        15625    0.6190149 
     100     2.522408   -1477.3951    622.55446   0.15768082    4763.5313   -2689.9564    -34.57716        15625    0.6190149 
     200      5.00028   -2077.8932    482.87645   0.13737302    1451.5221   -3018.4223    25.244493        15625    0.6190149 
     300     7.361266   -2521.1609    425.52552   0.11430077   -4430.6716   -3349.9717    11.578698        15625    0.6190149 
     400     9.837235    -2820.462     358.0239     0.163475   -428.36178   -3517.9181    59.065678        15625    0.6190149 
     500    12.467524   -3025.1734    315.13707   0.09080309   -1109.8653   -3638.9831    23.399723        15625    0.6190149 
     600      14.9329   -3162.9963    278.72731   0.10366492   -2461.3884   -3705.9124    68.395369        15625    0.6190149 
     700    17.523545   -3228.4152    287.23296    9.1653698   -1120.5123   -3797.0795    88.420292        15625    0.6190149 
     800    19.984786   -3292.3128    284.01836  0.093597913   -336.09414   -3845.5228    91.043191        15625    0.6190149 
     900    22.610923   -3282.8481    305.96324    7.8102954   -2459.1375   -3886.6156    115.43956        15625    0.6190149 
    1000    25.325702   -3305.9605    290.11136  0.096551821    492.32166   -3871.0394    102.18732        15625    0.6190149 
    1100    27.888931   -3300.2508    297.38724    2.2605725   -2072.4521   -3881.7003    58.672363        15625    0.6190149 
    1200    30.484431   -3300.9317    306.20061  0.097161994   -977.30249   -3897.3444    130.59946        15625    0.6190149 
    1300    33.167715   -3315.0629    291.88098    0.4702637     148.5281   -3883.9668     128.8923        15625    0.6190149 
    1400    36.002856   -3338.1135    304.92811   0.12764764   -717.87265    -3932.079    97.411579        15625    0.6190149 
    1500    38.625368   -3358.8101    301.34236   0.15014634   -2304.0894   -3945.8153    99.245314        15625    0.6190149 
    1600    41.155353   -3376.9485    287.05019   0.25689145   -199.87289   -3936.2283    80.355894        15625    0.6190149 
    1700    43.601951   -3384.6623    294.66481   0.12009432    961.98495   -3958.6327    158.62362        15625    0.6190149 
    1800    46.158673   -3404.0664    297.49675    3.5832695   -2295.1672   -3987.0617    122.30242        15625    0.6190149 
    1900    49.062306   -3416.3512    290.07249    0.1208501   -33.404505   -3981.3789    115.58182        15625    0.6190149 
    2000    52.192145   -3380.1412     301.7897    2.0243929   -1480.6547    -3969.917    143.47195        15625    0.6190149 
    2100    55.017943   -3363.6133    314.22174   0.14037066   -3567.3199   -3975.6906    88.469749        15625    0.6190149 
    2200    57.928457   -3383.5318    302.88125   0.25726068    472.37178   -3973.6605    124.42455        15625    0.6190149 
    2300    60.841834   -3412.8286     303.3683     0.420432   -1263.3374   -4004.0531    121.39776        15625    0.6190149 
    2400    64.128807   -3437.8056    297.88288   0.12703349   -1475.3334   -4018.0501    140.27097        15625    0.6190149 
    2500    66.795823   -3429.0992    287.73738    5.6520121   -339.80072   -3995.1852    139.12565        15625    0.6190149 
    2600    69.490786    -3429.525    293.69447   0.21787665   -1541.9855   -4001.8045    133.19803        15625    0.6190149 
    2700    72.217761   -3434.0088    297.13173   0.30285863   -932.99779   -4012.9686    138.47776        15625    0.6190149 
    2800    74.884435   -3422.8599    296.91021   0.54837861   -1099.9164   -4001.6371    95.830744        15625    0.6190149 
    2900    77.664241   -3416.3598    306.75853   0.13613218   -1279.2165   -4013.8986    147.67854        15625    0.6190149 
    3000    80.399483     -3422.74    293.51157     4.570366   -764.35268   -3998.9748    123.64818        15625    0.6190149 
    3100    83.135515   -3450.1574    292.59517   0.15427745   -1395.5562   -4020.1319    130.84375        15625    0.6190149 
    3200    85.936483   -3461.9168    298.12889   0.30471977   -1067.4487   -4042.8606    141.98612        15625    0.6190149 
    3300    88.474639   -3473.5151    285.26729   0.94815323    424.64251   -4030.0566    132.89221        15625    0.6190149 
    3400    90.975177   -3467.4431    298.87169   0.17428792   -435.26911   -4049.6903    156.44578        15625    0.6190149 
    3500    93.473642   -3435.1086    300.62011     2.117577   -27.855068   -4022.7012    157.56196        15625    0.6190149 
    3600    96.003277   -3432.1064    305.55591   0.21604974    433.79591    -4027.384    189.80356        15625    0.6190149 
    3700    99.041095    -3460.044    307.98946   0.20043247   -1147.9291   -4060.0451    118.90142        15625    0.6190149 
    3800    101.77622    -3496.889    294.87611    2.8719153    -900.6166   -4074.0598    141.11295        15625    0.6190149 
    3900    104.39193   -3529.4979    300.20227   0.15238617    326.86374    -4114.285    162.83126        15625    0.6190149 
    4000    107.31819   -3532.2349    290.72596   0.53902833   -838.78768   -4098.9861    141.89938        15625    0.6190149 
    4100    110.04226   -3531.0957    289.35768    0.8600989   -396.72596   -4095.4905    151.44319        15625    0.6190149 
    4200    112.86128   -3535.3024    292.36962   0.21073655    466.92838   -4104.9631    155.52799        15625    0.6190149 
    4300    115.88949   -3517.9217     292.2517    1.6073276   -1968.7453      -4088.7    113.69075        15625    0.6190149 
    4400    118.56078   -3489.3377    308.83968   0.32754752   -341.68333   -4091.1274    185.48999        15625    0.6190149 
    4500    121.15708   -3483.9237    314.14043   0.18868832    -1165.578   -4095.8917    115.71493        15625    0.6190149 
    4600    123.92243   -3500.8246    304.84006    4.2079629   -146.51902   -4098.7722     178.2173        15625    0.6190149 
    4700    126.63223   -3514.3282    292.92861   0.22998535   -1596.0633    -4085.037    148.06335        15625    0.6190149 
    4800     129.4253   -3528.5631    289.86792    0.2676208     -834.922   -4093.3413    98.029098        15625    0.6190149 
    4900    131.99899   -3551.4861    290.65948    3.2525181   -84.119047    -4120.887    170.41144        15625    0.6190149 
    5000    134.61567   -3589.1478    284.23289   0.17992097   -2020.7926   -4142.8631    128.46807        15625    0.6190149 
    5100    137.35302   -3550.1397    301.74788   0.39585411    121.87299   -4138.1836    151.13014        15625    0.6190149 
    5200     140.1448   -3533.1588     296.5532     1.887839   -569.08339   -4112.5983    121.12077        15625    0.6190149 
    5300    142.66562   -3525.0941    296.47007   0.18493213   -852.73957   -4102.6459     151.2145        15625    0.6190149 
    5400    144.87988    -3509.893    298.42656   0.59655205   -1032.1863   -4091.6721    130.26719        15625    0.6190149 
    5500    146.68491   -3500.1893    305.20812    1.2959199   -630.66474   -4095.9011    127.39421        15625    0.6190149 
    5600    148.50091   -3523.5454    292.17378   0.23418436   -2016.6596   -4092.8345     128.0443        15625    0.6190149 
    5700    150.31504   -3543.9047    297.05199    0.7769269   -1084.4933    -4123.195    110.46376        15625    0.6190149 
    5800    152.16247   -3537.2312    294.39687     1.031121   -667.14905    -4111.667     146.3876        15625    0.6190149 
    5900    154.04011   -3560.6233    308.08229   0.22032518   -909.88927    -4160.831    150.47602        15625    0.6190149 
    6000    156.23034   -3598.2986    269.56858   0.89893256   -1145.8658   -4124.1844    102.58969        15625    0.6190149 
    6100    158.03458   -3592.2615    281.84271   0.86228193    -478.9541   -4142.0135    160.56897        15625    0.6190149 
    6200    159.84982   -3548.6515    315.26702   0.18963178    6.0409845   -4162.8144    141.38093        15625    0.6190149 
    6300    161.67784   -3529.7079    302.67893    1.3504851   -29.534463   -4120.5623    189.62247        15625    0.6190149 
    6400    163.45666    -3558.739    293.65214   0.83293108    400.15733   -4131.4597    146.27988        15625    0.6190149 
    6500    165.24389   -3580.4285    283.43331   0.22209255    921.51502   -4132.6293    185.67826        15625    0.6190149 
    6600      167.071   -3571.7191    292.13523     1.299544   -417.66903   -4141.9586     135.7451        15625    0.6190149 
    6700    168.96913   -3536.7918    290.67774   0.82386559   -1669.6383   -4103.7224    141.69261        15625    0.6190149 
    6800    171.03026   -3540.5567    294.29794   0.21043719    381.32533   -4113.9043    146.05347        15625    0.6190149 
    6900    175.72233   -3555.6599    286.67708    1.2096913    622.89123   -4115.1787    173.54677        15625    0.6190149 
    7000    177.57515   -3567.3903    291.23271    0.9712267   -2167.7063   -4135.5396    125.83113        15625    0.6190149 
    7100    179.32419    -3522.683    306.33996   0.24953078    588.19967   -4119.5215     134.7882        15625    0.6190149 
    7200    181.14582    -3505.993    305.87368   0.95860916   -1424.8454   -4102.6537    107.43669        15625    0.6190149 
    7300    183.13541   -3531.9518    302.90158    1.2046683   -2339.0279   -4123.0622    104.83151        15625    0.6190149 
    7400    184.96969    -3578.925    286.82216   0.28200827   -1271.6265   -4137.8556    119.70633        15625    0.6190149 
    7500    186.98134   -3563.7156    295.83158   0.76745773   -1044.2688   -4140.6144     140.2453        15625    0.6190149 
    7600     188.7673   -3546.0169    307.63751    1.8436265    264.80819   -4147.0239     196.2448        15625    0.6190149 
    7700    190.55439   -3555.8945    285.09626   0.22718931     131.9022   -4111.3391    120.15383        15625    0.6190149 
    7800     192.3721   -3545.8341    305.03224   0.54148818   -2466.3358   -4140.4218     120.6047        15625    0.6190149 
    7900    194.24854   -3528.7153    301.65295    2.5240195   -330.22273   -4118.7312    144.16635        15625    0.6190149 
    8000    196.05524   -3534.2024    303.55393   0.27240494   -951.45839   -4125.6384    145.76277        15625    0.6190149 
    8100    197.84898   -3529.4378    305.28375   0.39999006   -95.321577   -4124.3719    160.78305        15625    0.6190149 
    8200    199.69199   -3509.4565    295.46619    2.8426117    211.92538   -4087.7377    126.12132        15625    0.6190149 
    8300    201.61133   -3537.0824    301.65902   0.31944156   -908.53813   -4124.8758    157.09165        15625    0.6190149 
    8400    203.53939   -3560.6462    299.90165   0.32965287   -261.46179    -4145.027    128.74218        15625    0.6190149 
    8500    205.59146   -3567.8642    293.62695    2.8127049    753.07667   -4142.5423    140.24508        15625    0.6190149 
    8600    207.47167   -3581.5616    290.69678   0.42405921   -1928.9783   -4148.1125    114.69105        15625    0.6190149 
    8700    209.35694   -3556.4937    293.11381   0.26953985   -95.695262    -4127.595    156.09371        15625    0.6190149 
    8800    211.20792   -3532.4673     314.9304    2.1121168   -1170.8163    -4147.923    121.75133        15625    0.6190149 
    8900    213.04124   -3539.0827    318.66388   0.72226174   -1051.6296   -4160.4603    157.45666        15625    0.6190149 
    9000    214.89834   -3568.2889    290.34196   0.27204992   -903.91414   -4134.0151    86.028324        15625    0.6190149 
    9100    216.77483   -3565.1065    277.25477    1.1717865   -783.32556   -4106.2374    157.52801        15625    0.6190149 
    9200    218.60417    -3538.967    314.56062    1.2814603   -655.37441   -4152.8608    118.87926        15625    0.6190149 
    9300    220.48085   -3555.5594    297.69478   0.25180363   -95.955763   -4135.5641    163.93903        15625    0.6190149 
    9400    222.35701    -3576.619     294.4936   0.69837959   -2656.3579   -4150.8503     127.4364        15625    0.6190149 
    9500    224.26244   -3575.2403    294.51576    2.1568311    420.14366   -4151.0145    130.15368        15625    0.6190149 
    9600    226.33235   -3560.1257    289.45209   0.32793805   -128.53991   -4124.1875    135.66031        15625    0.6190149 
    9700    228.70771   -3540.3628    299.63223   0.42250275   -525.62434   -4124.3136    146.10916        15625    0.6190149 
    9800    230.59837   -3531.5177    289.09621    2.8390952    196.21801   -4097.3991     112.2866        15625    0.6190149 
    9900    232.41904   -3544.9633    311.35186    0.3814859   -1672.9083    -4151.696    105.07761        15625    0.6190149 
   10000    234.27834   -3591.9329    293.70058   0.34892728    -1738.023   -4164.2684    91.113485        15625    0.6190149 
   10100    236.09137   -3580.4449    292.73839    2.2730775   -1099.5446   -4152.8457    139.44112        15625    0.6190149 
   10200    237.91254   -3545.9902    304.26718   0.61259261   -456.74142     -4139.16     117.6197        15625    0.6190149 
   10300     239.7578   -3531.5706    302.37447   0.33990997   -1477.3295   -4120.8742    111.00829        15625    0.6190149 
   10400    241.62582   -3538.2646    305.33012    1.4505081   -36.564109   -4134.3536    141.59705        15625    0.6190149 
   10500    243.52291   -3573.1374    287.84902    1.1108667   -206.93779   -4134.8384    157.99923        15625    0.6190149 
   10600    245.36892    -3591.704     290.3654   0.35270294     -2929.22   -4157.6374    85.770744        15625    0.6190149 
   10700    247.56435   -3577.3174    297.79677   0.78291714   -1078.6747    -4158.059    115.32411        15625    0.6190149 
   10800    249.41663   -3540.3796    296.55703    1.9960563    -1322.356   -4119.9362    117.66323        15625    0.6190149 
   10900    251.36373   -3521.7963    310.72111   0.30390458   -243.25662   -4127.2417     158.8636        15625    0.6190149 
   11000    253.39778   -3525.2248    292.06655   0.46696492   -989.35978   -4094.5138    125.17582        15625    0.6190149 
   11100    255.27472   -3530.4544    293.00683    2.9728373   -1943.2588   -4104.0963    102.23388        15625    0.6190149 
   11200    257.11736   -3537.2337    294.47165   0.37864495   -2511.8802     -4111.09    100.53734        15625    0.6190149 
   11300     258.9509    -3518.674    307.52812   0.36232147    -1478.167   -4117.9799    102.53086        15625    0.6190149 
   11400    260.80069   -3510.1262    305.36595    2.2559791   -164.48189   -4107.1806    177.18937        15625    0.6190149 
   11500     262.6274   -3523.7174    312.88317   0.61313722   -893.98752   -4133.6671    130.55471        15625    0.6190149 
   11600     264.4942   -3537.3339    303.83772   0.28368878   -1387.7535    -4129.334    154.35743        15625    0.6190149 
   11700    266.29711   -3557.3765    292.95726    1.2915435    -151.4638   -4129.2088    137.81783        15625    0.6190149 
   11800     268.1002    -3559.353    298.91421     1.244273   -1085.3578   -4142.7383    118.75475        15625    0.6190149 
   11900    269.93015     -3553.52    295.19418   0.27360947   -1434.3278   -4128.6873    149.28428        15625    0.6190149 
   12000    271.81389   -3546.9557    286.58095   0.63757854    589.60747   -4105.7076    176.55784        15625    0.6190149 
   12100    273.71678   -3539.0269    296.92499    2.2243238   -588.51306   -4119.5315    114.78132        15625    0.6190149 
   12200    275.97496   -3537.7336    303.00839   0.36512859   -1794.1122   -4128.2011    111.93591        15625    0.6190149 
   12300    277.85006   -3506.3756    307.47742   0.42999435   -96.024362   -4105.6121     163.9907        15625    0.6190149 
   12400    279.77402   -3492.9709     298.0293    2.5670683   -973.29254   -4075.9734    101.45514        15625    0.6190149 
   12500    281.95884   -3508.7837    318.52182   0.58582939   -1494.3009   -4129.6868    128.21304        15625    0.6190149 
   12600    283.98118   -3544.9035    304.03915    0.3639903     -225.378   -4137.3773    137.88757        15625    0.6190149 
   12700    285.88496   -3554.5606    289.12645    1.4666495   -1349.4522   -4119.1853    122.03912        15625    0.6190149 
   12800    287.78516   -3551.5953    298.04574    1.1857498    -1492.391   -4133.2299     109.7786        15625    0.6190149 
   12900    289.65475    -3560.605    295.48215   0.32194255   -570.55533   -4136.4325    118.15088        15625    0.6190149 
   13000    291.49368   -3541.5338    305.91405   0.77749755     741.5947   -4138.1288    134.07199        15625    0.6190149 
   13100    293.36398   -3521.4809    307.37747    2.1397897   -2120.2173   -4122.3008     136.8528        15625    0.6190149 
   13200     295.2978   -3532.2319    314.42997   0.36758291    98.088828    -4144.945    111.33279        15625    0.6190149 
   13300    297.20122   -3567.9498    298.04608   0.44817991   -695.09092   -4148.8376    137.13978        15625    0.6190149 
   13400    298.99618   -3571.7876    297.82334    2.4238422   -2440.2877   -4154.2435    110.66589        15625    0.6190149 
   13500     300.8099   -3591.6641    297.50556   0.57496395   -192.54068   -4171.6277    108.25399        15625    0.6190149 
   13600    302.68482   -3599.5839     288.3597   0.34342535   -302.91877   -4161.5017    161.29212        15625    0.6190149 
   13700    304.60458   -3587.6787    291.06163    1.4461986    97.835424   -4156.0101    154.91345        15625    0.6190149 
   13800    306.47386   -3571.0505    302.08391     1.173566   -651.59778    -4160.537     114.5005        15625    0.6190149 
   13900    308.38356   -3566.5412    311.99426   0.36490609   -630.11299   -4174.5082     131.7117        15625    0.6190149 
   14000    310.32937   -3560.9318    305.40076   0.73880333   -913.05167   -4156.4901    136.07592        15625    0.6190149 
   14100    312.21725    -3565.933    288.81317    2.3768655   -313.05146   -4130.7947    122.45453        15625    0.6190149 
