created by fftool

960 atoms
820 bonds
1000 angles
1080 dihedrals
18 atom types
13 bond types
17 angle types
14 dihedral types
0.000000 25.000000 xlo xhi
0.000000 25.000000 ylo yhi
0.000000 25.000000 zlo zhi

Masses

   1    1.008  # H1
   2   12.011  # C1
   3   14.007  # N4
   4   12.011  # C1A
   5    1.008  # HC
   6   12.011  # COL
   7    1.008  # HO
   8   15.999  # OH
   9   30.974  # P00
  10   15.999  # O01
  11   15.999  # O02
  12   15.999  # OH3
  13    1.008  # HO4
  14   15.999  # OH5
  15    1.008  # HO6
  16   15.999  # OHw
  17    1.008  # HOw
  18    0.000  # M

Bond Coeffs

   1   339.985660     1.090000  # HC-CT
   2   382.002868     1.448000  # NT-CT
   3   267.925430     1.529000  # CT-CT
   4   320.004780     1.410000  # CT-OH
   5   552.999522     0.945000  # HO-OH
   6   429.995220     1.570000  # O01-P00
   7   429.995220     1.570000  # O02-P00
   8   429.995220     1.570000  # O03-P00
   9   429.995220     1.570000  # O05-P00
  10   500.000000     0.940000  # H04-O03
  11   500.000000     0.940000  # H06-O05
  12   517.630258     0.957200  # Ow-Hw
  13   500.000000     0.240300  # Ow-M

Angle Coeffs

   1    32.994742   107.800000  # HC-CT-HC
   2    35.002390   109.500000  # HC-CT-NT
   3    51.804493   107.200000  # CT-NT-CT
   4    56.202199   109.500000  # NT-CT-CT
   5    37.500000   110.700000  # CT-CT-HC
   6    50.000000   109.500000  # CT-CT-OH
   7    35.002390   109.500000  # HC-CT-OH
   8    54.995220   108.500000  # CT-OH-HO
   9   125.000000   109.470000  # O01-P00-O02
  10   125.000000   109.470000  # O01-P00-O03
  11   125.000000   109.470000  # O01-P00-O05
  12   125.000000   109.470000  # O02-P00-O03
  13   125.000000   109.470000  # O02-P00-O05
  14   125.000000   109.470000  # O03-P00-O05
  15    50.000000   115.000000  # P00-O03-H04
  16    50.000000   115.000000  # P00-O05-H06
  17    37.950526   104.520000  # Hw-Ow-Hw

Dihedral Coeffs

   1     0.000000     0.000000     0.559990     0.000000  # HC-CT-NT-CT
   2     0.415989    -0.128011     0.695005     0.000000  # CT-NT-CT-CT
   3    -1.013002    -0.709011     0.472992     0.000000  # HC-CT-CT-NT
   4   -10.528561    -1.298972     0.000000     0.000000  # OH-CT-CT-NT
   5     0.000000     0.000000     0.300000     0.000000  # HC-CT-CT-HC
   6     0.000000     0.000000     0.467997     0.000000  # HC-CT-CT-OH
   7    -0.355999    -0.173996     0.491993     0.000000  # CT-CT-OH-HO
   8     0.000000     0.000000     0.450000     0.000000  # HC-CT-OH-HO
   9     0.000000     0.000000     0.000000     0.000000  # H04-O03-P00-O01
  10     0.000000     0.000000     0.000000     0.000000  # H04-O03-P00-O02
  11     0.000000     0.000000     0.000000     0.000000  # O05-P00-O03-H04
  12     0.000000     0.000000     0.000000     0.000000  # H06-O05-P00-O01
  13     0.000000     0.000000     0.000000     0.000000  # H06-O05-P00-O02
  14     0.000000     0.000000     0.000000     0.000000  # H06-O05-P00-O03

Atoms

      1       1    1   0.1300  1.743907e+01  1.023947e+01  2.103993e+01  # H1 ch+
      2       1    2  -0.1700  1.660343e+01  1.081822e+01  2.060307e+01  # C1 ch+
      3       1    1   0.1300  1.697663e+01  1.146064e+01  1.978277e+01  # H1 ch+
      4       1    1   0.1300  1.579480e+01  1.013878e+01  2.026882e+01  # H1 ch+
      5       1    1   0.1300  1.791362e+01  1.175607e+01  2.271636e+01  # H1 ch+
      6       1    2  -0.1700  1.716738e+01  1.248603e+01  2.235041e+01  # C1 ch+
      7       1    1   0.1300  1.674595e+01  1.305022e+01  2.320413e+01  # H1 ch+
      8       1    1   0.1300  1.762470e+01  1.315199e+01  2.159484e+01  # H1 ch+
      9       1    3   0.1200  1.604899e+01  1.170974e+01  2.168938e+01  # N4 ch+
     10       1    1   0.1300  1.617424e+01  1.010516e+01  2.306811e+01  # H1 ch+
     11       1    2  -0.1700  1.541086e+01  1.084383e+01  2.275497e+01  # C1 ch+
     12       1    1   0.1300  1.516046e+01  1.150878e+01  2.359985e+01  # H1 ch+
     13       1    1   0.1300  1.453151e+01  1.032935e+01  2.233192e+01  # H1 ch+
     14       1    1   0.1300  1.569670e+01  1.332159e+01  2.039283e+01  # H1 ch+
     15       1    4  -0.1700  1.507061e+01  1.273046e+01  2.109512e+01  # C1A ch+
     16       1    1   0.1300  1.472082e+01  1.338434e+01  2.193313e+01  # H1 ch+
     17       1    5   0.0600  1.408949e+01  1.131029e+01  1.970307e+01  # HC ch+
     18       1    6   0.2750  1.383642e+01  1.217935e+01  2.034236e+01  # COL ch+
     19       1    5   0.0600  1.352908e+01  1.302100e+01  1.967947e+01  # HC ch+
     20       1    7   0.4180  1.272837e+01  1.084967e+01  2.133798e+01  # HO ch+
     21       1    8  -0.6830  1.274513e+01  1.187150e+01  2.120716e+01  # OH ch+
     22       2    1   0.1300  6.551348e+00  9.755503e+00  4.205457e+00  # H1 ch+
     23       2    2  -0.1700  7.293124e+00  9.921504e+00  5.009381e+00  # C1 ch+
     24       2    1   0.1300  7.013429e+00  9.339166e+00  5.908012e+00  # H1 ch+
     25       2    1   0.1300  8.312840e+00  9.677169e+00  4.651992e+00  # H1 ch+
     26       2    1   0.1300  5.236062e+00  1.158056e+01  4.729752e+00  # H1 ch+
     27       2    2  -0.1700  5.835335e+00  1.183167e+01  5.624988e+00  # C1 ch+
     28       2    1   0.1300  5.831502e+00  1.292706e+01  5.782654e+00  # H1 ch+
     29       2    1   0.1300  5.453472e+00  1.128178e+01  6.505521e+00  # H1 ch+
     30       2    3   0.1200  7.259180e+00  1.138927e+01  5.365440e+00  # N4 ch+
     31       2    1   0.1300  7.174353e+00  1.188518e+01  3.306767e+00  # H1 ch+
     32       2    2  -0.1700  7.772084e+00  1.219060e+01  4.187612e+00  # C1 ch+
     33       2    1   0.1300  7.586566e+00  1.325395e+01  4.419087e+00  # H1 ch+
     34       2    1   0.1300  8.838725e+00  1.196147e+01  4.024296e+00  # H1 ch+
     35       2    1   0.1300  7.527870e+00  1.104992e+01  7.418700e+00  # H1 ch+
     36       2    4  -0.1700  8.060685e+00  1.164656e+01  6.647480e+00  # C1A ch+
     37       2    1   0.1300  7.971641e+00  1.273676e+01  6.883475e+00  # H1 ch+
     38       2    5   0.0600  9.736285e+00  1.028711e+01  6.136021e+00  # HC ch+
     39       2    6   0.2750  9.557944e+00  1.125694e+01  6.641616e+00  # COL ch+
     40       2    5   0.0600  9.807918e+00  1.113754e+01  7.721204e+00  # HC ch+
     41       2    7   0.4180  1.064621e+01  1.199448e+01  5.138689e+00  # HO ch+
     42       2    8  -0.6830  1.039837e+01  1.227327e+01  6.099090e+00  # OH ch+
     43       3    1   0.1300  1.515529e+01  8.655437e+00  2.706650e+00  # H1 ch+
     44       3    2  -0.1700  1.412648e+01  8.641847e+00  2.299896e+00  # C1 ch+
     45       3    1   0.1300  1.404234e+01  9.358133e+00  1.460408e+00  # H1 ch+
     46       3    1   0.1300  1.384061e+01  7.613330e+00  2.003793e+00  # H1 ch+
     47       3    1   0.1300  1.472857e+01  1.022035e+01  4.351231e+00  # H1 ch+
     48       3    2  -0.1700  1.368895e+01  1.038397e+01  4.010574e+00  # C1 ch+
     49       3    1   0.1300  1.304611e+01  1.063214e+01  4.876556e+00  # H1 ch+
     50       3    1   0.1300  1.366232e+01  1.116940e+01  3.232166e+00  # H1 ch+
     51       3    3   0.1200  1.319453e+01  9.089858e+00  3.401274e+00  # N4 ch+
     52       3    1   0.1300  1.425300e+01  7.883710e+00  4.785507e+00  # H1 ch+
     53       3    2  -0.1700  1.319588e+01  8.046249e+00  4.498251e+00  # C1 ch+
     54       3    1   0.1300  1.263568e+01  8.474369e+00  5.347717e+00  # H1 ch+
     55       3    1   0.1300  1.275526e+01  7.110328e+00  4.115094e+00  # H1 ch+
     56       3    1   0.1300  1.194797e+01  1.017503e+01  2.108328e+00  # H1 ch+
     57       3    4  -0.1700  1.179183e+01  9.353333e+00  2.839819e+00  # C1A ch+
     58       3    1   0.1300  1.115617e+01  9.715525e+00  3.686534e+00  # H1 ch+
     59       3    5   0.0600  1.175606e+01  7.587278e+00  1.499265e+00  # HC ch+
     60       3    6   0.2750  1.107123e+01  8.175501e+00  2.141917e+00  # COL ch+
     61       3    5   0.0600  1.031945e+01  8.672247e+00  1.485920e+00  # HC ch+
     62       3    7   0.4180  1.094940e+01  6.481215e+00  3.191503e+00  # HO ch+
     63       3    8  -0.6830  1.037639e+01  7.326135e+00  3.052606e+00  # OH ch+
     64       4    1   0.1300  1.404040e+01  2.079821e+01  7.168861e+00  # H1 ch+
     65       4    2  -0.1700  1.481142e+01  2.145473e+01  6.723223e+00  # C1 ch+
     66       4    1   0.1300  1.459824e+01  2.161291e+01  5.648783e+00  # H1 ch+
     67       4    1   0.1300  1.487805e+01  2.240875e+01  7.282381e+00  # H1 ch+
     68       4    1   0.1300  1.520904e+01  1.883051e+01  6.855586e+00  # H1 ch+
     69       4    2  -0.1700  1.602942e+01  1.933371e+01  6.310241e+00  # C1 ch+
     70       4    1   0.1300  1.698454e+01  1.880950e+01  6.504391e+00  # H1 ch+
     71       4    1   0.1300  1.579360e+01  1.938567e+01  5.230786e+00  # H1 ch+
     72       4    3   0.1200  1.613982e+01  2.074551e+01  6.844131e+00  # N4 ch+
     73       4    1   0.1300  1.565168e+01  2.017208e+01  8.825081e+00  # H1 ch+
     74       4    2  -0.1700  1.650962e+01  2.064536e+01  8.308951e+00  # C1 ch+
     75       4    1   0.1300  1.739561e+01  1.998973e+01  8.371073e+00  # H1 ch+
     76       4    1   0.1300  1.668848e+01  2.165638e+01  8.712369e+00  # H1 ch+
     77       4    1   0.1300  1.682774e+01  2.139929e+01  4.972618e+00  # H1 ch+
     78       4    4  -0.1700  1.720840e+01  2.146779e+01  6.014274e+00  # C1A ch+
     79       4    1   0.1300  1.815731e+01  2.088252e+01  6.110163e+00  # H1 ch+
     80       4    5   0.0600  1.657021e+01  2.351753e+01  6.569800e+00  # HC ch+
     81       4    6   0.2750  1.749717e+01  2.294826e+01  6.358425e+00  # COL ch+
     82       4    5   0.0600  1.795104e+01  2.335647e+01  5.425889e+00  # HC ch+
     83       4    7   0.4180  1.791343e+01  2.333453e+01  8.272741e+00  # HO ch+
     84       4    8  -0.6830  1.843939e+01  2.310290e+01  7.417618e+00  # OH ch+
     85       5    1   0.1300  2.141788e+01  1.138530e+01  1.618524e+01  # H1 ch+
     86       5    2  -0.1700  2.091241e+01  1.200141e+01  1.541778e+01  # C1 ch+
     87       5    1   0.1300  2.160038e+01  1.278637e+01  1.504979e+01  # H1 ch+
     88       5    1   0.1300  2.052923e+01  1.136188e+01  1.459838e+01  # H1 ch+
     89       5    1   0.1300  2.066268e+01  1.260945e+01  1.799268e+01  # H1 ch+
     90       5    2  -0.1700  2.017075e+01  1.336543e+01  1.735227e+01  # C1 ch+
     91       5    1   0.1300  1.927258e+01  1.376145e+01  1.786336e+01  # H1 ch+
     92       5    1   0.1300  2.088753e+01  1.416539e+01  1.708802e+01  # H1 ch+
     93       5    3   0.1200  1.973287e+01  1.267569e+01  1.607832e+01  # N4 ch+
     94       5    1   0.1300  1.925526e+01  1.086494e+01  1.707045e+01  # H1 ch+
     95       5    2  -0.1700  1.871832e+01  1.161993e+01  1.646370e+01  # C1 ch+
     96       5    1   0.1300  1.795170e+01  1.212246e+01  1.707888e+01  # H1 ch+
     97       5    1   0.1300  1.830714e+01  1.115559e+01  1.555143e+01  # H1 ch+
     98       5    1   0.1300  1.997817e+01  1.447194e+01  1.502166e+01  # H1 ch+
     99       5    4  -0.1700  1.914478e+01  1.374905e+01  1.515405e+01  # C1A ch+
    100       5    1   0.1300  1.830254e+01  1.423849e+01  1.570473e+01  # H1 ch+
    101       5    5   0.0600  1.931423e+01  1.255432e+01  1.329361e+01  # HC ch+
    102       5    6   0.2750  1.863629e+01  1.329279e+01  1.376592e+01  # COL ch+
    103       5    5   0.0600  1.865592e+01  1.422415e+01  1.315402e+01  # HC ch+
    104       5    7   0.4180  1.733728e+01  1.177633e+01  1.376706e+01  # HO ch+
    105       5    8  -0.6830  1.729639e+01  1.280548e+01  1.379339e+01  # OH ch+
    106       6    1   0.1300  1.227979e+01  1.418874e+01  1.653513e+00  # H1 ch+
    107       6    2  -0.1700  1.248431e+01  1.429821e+01  2.735304e+00  # C1 ch+
    108       6    1   0.1300  1.208812e+01  1.342339e+01  3.285399e+00  # H1 ch+
    109       6    1   0.1300  1.356762e+01  1.444881e+01  2.911391e+00  # H1 ch+
    110       6    1   0.1300  1.028996e+01  1.536160e+01  1.678804e+00  # H1 ch+
    111       6    2  -0.1700  1.030631e+01  1.548453e+01  2.778008e+00  # C1 ch+
    112       6    1   0.1300  9.825535e+00  1.644218e+01  3.054616e+00  # H1 ch+
    113       6    1   0.1300  9.821638e+00  1.461793e+01  3.265473e+00  # H1 ch+
    114       6    3   0.1200  1.175449e+01  1.553087e+01  3.215092e+00  # N4 ch+
    115       6    1   0.1300  1.237901e+01  1.657436e+01  1.479476e+00  # H1 ch+
    116       6    2  -0.1700  1.237991e+01  1.675100e+01  2.572749e+00  # C1 ch+
    117       6    1   0.1300  1.173009e+01  1.760944e+01  2.816708e+00  # H1 ch+
    118       6    1   0.1300  1.341318e+01  1.687036e+01  2.940191e+00  # H1 ch+
    119       6    1   0.1300  1.122494e+01  1.468117e+01  5.059221e+00  # H1 ch+
    120       6    4  -0.1700  1.176958e+01  1.559805e+01  4.747245e+00  # C1A ch+
    121       6    1   0.1300  1.118715e+01  1.650524e+01  5.047163e+00  # H1 ch+
    122       6    5   0.0600  1.387603e+01  1.494376e+01  4.975485e+00  # HC ch+
    123       6    6   0.2750  1.314996e+01  1.563694e+01  5.444863e+00  # COL ch+
    124       6    5   0.0600  1.293886e+01  1.527301e+01  6.476971e+00  # HC ch+
    125       6    7   0.4180  1.441165e+01  1.704666e+01  4.806185e+00  # HO ch+
    126       6    8  -0.6830  1.369277e+01  1.695232e+01  5.538188e+00  # OH ch+
    127       7    1   0.1300  2.229587e+01  2.328952e+01  4.295046e+00  # H1 ch+
    128       7    2  -0.1700  2.266058e+01  2.236948e+01  3.800472e+00  # C1 ch+
    129       7    1   0.1300  2.337443e+01  2.263030e+01  2.995931e+00  # H1 ch+
    130       7    1   0.1300  2.310229e+01  2.167847e+01  4.545209e+00  # H1 ch+
    131       7    1   0.1300  2.041261e+01  2.352389e+01  2.978200e+00  # H1 ch+
    132       7    2  -0.1700  2.068406e+01  2.266824e+01  2.331820e+00  # C1 ch+
    133       7    1   0.1300  1.976630e+01  2.216646e+01  1.970284e+00  # H1 ch+
    134       7    1   0.1300  2.132901e+01  2.300866e+01  1.500150e+00  # H1 ch+
    135       7    3   0.1200  2.146841e+01  2.168521e+01  3.173759e+00  # N4 ch+
    136       7    1   0.1300  2.033003e+01  2.207378e+01  4.918570e+00  # H1 ch+
    137       7    2  -0.1700  2.054828e+01  2.120010e+01  4.273985e+00  # C1 ch+
    138       7    1   0.1300  1.962191e+01  2.085093e+01  3.785483e+00  # H1 ch+
    139       7    1   0.1300  2.105564e+01  2.041234e+01  4.856153e+00  # H1 ch+
    140       7    1   0.1300  2.252842e+01  2.107184e+01  1.469826e+00  # H1 ch+
    141       7    4  -0.1700  2.192851e+01  2.055254e+01  2.247697e+00  # C1A ch+
    142       7    1   0.1300  2.101228e+01  2.010701e+01  1.784880e+00  # H1 ch+
    143       7    5   0.0600  2.352554e+01  1.980426e+01  3.591912e+00  # HC ch+
    144       7    6   0.2750  2.277365e+01  1.941860e+01  2.875018e+00  # COL ch+
    145       7    5   0.0600  2.331534e+01  1.897660e+01  2.006992e+00  # HC ch+
    146       7    7   0.4180  2.199702e+01  1.854365e+01  4.493162e+00  # HO ch+
    147       7    8  -0.6830  2.198081e+01  1.839558e+01  3.473688e+00  # OH ch+
    148       8    1   0.1300  3.191825e+00  1.716642e+01  5.911664e+00  # H1 ch+
    149       8    2  -0.1700  4.008203e+00  1.706801e+01  6.651884e+00  # C1 ch+
    150       8    1   0.1300  4.418025e+00  1.604021e+01  6.628335e+00  # H1 ch+
    151       8    1   0.1300  4.787777e+00  1.783449e+01  6.472929e+00  # H1 ch+
    152       8    1   0.1300  1.485855e+00  1.667009e+01  7.387814e+00  # H1 ch+
    153       8    2  -0.1700  2.184927e+00  1.645247e+01  8.217012e+00  # C1 ch+
    154       8    1   0.1300  1.717287e+00  1.672563e+01  9.182128e+00  # H1 ch+
    155       8    1   0.1300  2.491819e+00  1.539017e+01  8.187635e+00  # H1 ch+
    156       8    3   0.1200  3.415342e+00  1.731134e+01  8.019940e+00  # N4 ch+
    157       8    1   0.1300  2.308728e+00  1.894562e+01  7.248056e+00  # H1 ch+
    158       8    2  -0.1700  2.974902e+00  1.875700e+01  8.112399e+00  # C1 ch+
    159       8    1   0.1300  2.408606e+00  1.885922e+01  9.054501e+00  # H1 ch+
    160       8    1   0.1300  3.859644e+00  1.941412e+01  8.064124e+00  # H1 ch+
    161       8    1   0.1300  4.589165e+00  1.584364e+01  8.953329e+00  # H1 ch+
    162       8    4  -0.1700  4.421038e+00  1.693026e+01  9.113371e+00  # C1A ch+
    163       8    1   0.1300  3.919423e+00  1.709477e+01  1.010003e+01  # H1 ch+
    164       8    5   0.0600  6.191592e+00  1.779252e+01  8.094074e+00  # HC ch+
    165       8    6   0.2750  5.782607e+00  1.766493e+01  9.116059e+00  # COL ch+
    166       8    5   0.0600  6.456879e+00  1.697740e+01  9.677225e+00  # HC ch+
    167       8    7   0.4180  5.698380e+00  1.965984e+01  9.097869e+00  # HO ch+
    168       8    8  -0.6830  5.743763e+00  1.891253e+01  9.805671e+00  # OH ch+
    169       9    1   0.1300  2.285188e+01  1.951852e+01  1.069831e+01  # H1 ch+
    170       9    2  -0.1700  2.245970e+01  2.047559e+01  1.030553e+01  # C1 ch+
    171       9    1   0.1300  2.170147e+01  2.088658e+01  1.099911e+01  # H1 ch+
    172       9    1   0.1300  2.328845e+01  2.118713e+01  1.012079e+01  # H1 ch+
    173       9    1   0.1300  2.136630e+01  1.817509e+01  9.547684e+00  # H1 ch+
    174       9    2  -0.1700  2.081059e+01  1.903841e+01  9.136002e+00  # C1 ch+
    175       9    1   0.1300  2.041077e+01  1.878364e+01  8.136008e+00  # H1 ch+
    176       9    1   0.1300  2.001365e+01  1.934814e+01  9.837774e+00  # H1 ch+
    177       9    3   0.1200  2.178666e+01  2.018504e+01  8.984590e+00  # N4 ch+
    178       9    1   0.1300  2.339496e+01  1.891423e+01  8.446370e+00  # H1 ch+
    179       9    2  -0.1700  2.283785e+01  1.975248e+01  7.984402e+00  # C1 ch+
    180       9    1   0.1300  2.229982e+01  1.939904e+01  7.087580e+00  # H1 ch+
    181       9    1   0.1300  2.351783e+01  2.059633e+01  7.778374e+00  # H1 ch+
    182       9    1   0.1300  2.022903e+01  2.155347e+01  9.307743e+00  # H1 ch+
    183       9    4  -0.1700  2.098962e+01  2.140683e+01  8.511093e+00  # C1A ch+
    184       9    1   0.1300  2.048512e+01  2.112513e+01  7.552815e+00  # H1 ch+
    185       9    5   0.0600  2.251627e+01  2.290535e+01  9.095110e+00  # HC ch+
    186       9    6   0.2750  2.176881e+01  2.272614e+01  8.296874e+00  # COL ch+
    187       9    5   0.0600  2.098507e+01  2.351516e+01  8.370740e+00  # HC ch+
    188       9    7   0.4180  2.337572e+01  2.260949e+01  7.117344e+00  # HO ch+
    189       9    8  -0.6830  2.237236e+01  2.281646e+01  7.008024e+00  # OH ch+
    190      10    1   0.1300  7.388050e+00  1.580991e+01  1.837493e+01  # H1 ch+
    191      10    2  -0.1700  8.229377e+00  1.533842e+01  1.891710e+01  # C1 ch+
    192      10    1   0.1300  7.841389e+00  1.465225e+01  1.969396e+01  # H1 ch+
    193      10    1   0.1300  8.909337e+00  1.482702e+01  1.820761e+01  # H1 ch+
    194      10    1   0.1300  7.290082e+00  1.769644e+01  1.970425e+01  # H1 ch+
    195      10    2  -0.1700  8.069012e+00  1.732367e+01  2.039558e+01  # C1 ch+
    196      10    1   0.1300  8.649002e+00  1.817507e+01  2.079991e+01  # H1 ch+
    197      10    1   0.1300  7.608257e+00  1.671479e+01  2.119590e+01  # H1 ch+
    198      10    3   0.1200  9.005544e+00  1.643937e+01  1.960101e+01  # N4 ch+
    199      10    1   0.1300  8.854189e+00  1.762934e+01  1.785392e+01  # H1 ch+
    200      10    2  -0.1700  9.657148e+00  1.730737e+01  1.854533e+01  # C1 ch+
    201      10    1   0.1300  1.007914e+01  1.818368e+01  1.906755e+01  # H1 ch+
    202      10    1   0.1300  1.041583e+01  1.671834e+01  1.800280e+01  # H1 ch+
    203      10    1   0.1300  9.391185e+00  1.530194e+01  2.132170e+01  # H1 ch+
    204      10    4  -0.1700  1.002099e+01  1.584520e+01  2.058491e+01  # C1A ch+
    205      10    1   0.1300  1.053895e+01  1.670065e+01  2.108701e+01  # H1 ch+
    206      10    5   0.0600  1.066273e+01  1.418461e+01  1.926282e+01  # HC ch+
    207      10    6   0.2750  1.108740e+01  1.488148e+01  2.001251e+01  # COL ch+
    208      10    5   0.0600  1.141211e+01  1.428558e+01  2.089665e+01  # HC ch+
    209      10    7   0.4180  1.214046e+01  1.556680e+01  1.846058e+01  # HO ch+
    210      10    8  -0.6830  1.222787e+01  1.555741e+01  1.948712e+01  # OH ch+
    211      11    1   0.1300  4.092691e+00  2.009918e+01  1.612041e+01  # H1 ch+
    212      11    2  -0.1700  3.404389e+00  1.988873e+01  1.528015e+01  # C1 ch+
    213      11    1   0.1300  2.903715e+00  1.891418e+01  1.543655e+01  # H1 ch+
    214      11    1   0.1300  2.679657e+00  2.071738e+01  1.515628e+01  # H1 ch+
    215      11    1   0.1300  5.966367e+00  1.920384e+01  1.510877e+01  # H1 ch+
    216      11    2  -0.1700  5.397020e+00  1.885157e+01  1.422821e+01  # C1 ch+
    217      11    1   0.1300  6.040860e+00  1.888450e+01  1.332869e+01  # H1 ch+
    218      11    1   0.1300  4.993289e+00  1.783898e+01  1.441583e+01  # H1 ch+
    219      11    3   0.1200  4.235069e+00  1.979897e+01  1.402151e+01  # N4 ch+
    220      11    1   0.1300  5.344129e+00  2.149778e+01  1.463409e+01  # H1 ch+
    221      11    2  -0.1700  4.815561e+00  2.116443e+01  1.371980e+01  # C1 ch+
    222      11    1   0.1300  5.536779e+00  2.103022e+01  1.289485e+01  # H1 ch+
    223      11    1   0.1300  3.999125e+00  2.186410e+01  1.347324e+01  # H1 ch+
    224      11    1   0.1300  3.102006e+00  1.823149e+01  1.320762e+01  # H1 ch+
    225      11    4  -0.1700  3.393312e+00  1.924729e+01  1.286421e+01  # C1A ch+
    226      11    1   0.1300  4.064101e+00  1.916778e+01  1.197208e+01  # H1 ch+
    227      11    5   0.0600  1.565341e+00  2.040462e+01  1.335044e+01  # HC ch+
    228      11    6   0.2750  2.124198e+00  2.003779e+01  1.246663e+01  # COL ch+
    229      11    5   0.0600  1.491753e+00  1.928368e+01  1.194359e+01  # HC ch+
    230      11    7   0.4180  2.387030e+00  2.198215e+01  1.209586e+01  # HO ch+
    231      11    8  -0.6830  2.390883e+00  2.110366e+01  1.155758e+01  # OH ch+
    232      12    1   0.1300  9.504067e+00  2.199582e+01  9.342335e+00  # H1 ch+
    233      12    2  -0.1700  8.575921e+00  2.169109e+01  8.822950e+00  # C1 ch+
    234      12    1   0.1300  8.240177e+00  2.070478e+01  9.196265e+00  # H1 ch+
    235      12    1   0.1300  7.795828e+00  2.246962e+01  8.935127e+00  # H1 ch+
    236      12    1   0.1300  1.094530e+01  2.113214e+01  7.757221e+00  # H1 ch+
    237      12    2  -0.1700  1.012367e+01  2.068959e+01  7.163336e+00  # C1 ch+
    238      12    1   0.1300  1.039357e+01  2.069349e+01  6.090072e+00  # H1 ch+
    239      12    1   0.1300  9.892142e+00  1.967269e+01  7.531919e+00  # H1 ch+
    240      12    3   0.1200  8.898487e+00  2.155753e+01  7.353126e+00  # N4 ch+
    241      12    1   0.1300  1.002394e+01  2.335121e+01  7.438659e+00  # H1 ch+
    242      12    2  -0.1700  9.226564e+00  2.292730e+01  6.797618e+00  # C1 ch+
    243      12    1   0.1300  9.607849e+00  2.277401e+01  5.773010e+00  # H1 ch+
    244      12    1   0.1300  8.326461e+00  2.356392e+01  6.835245e+00  # H1 ch+
    245      12    1   0.1300  7.668006e+00  1.987934e+01  7.083259e+00  # H1 ch+
    246      12    4  -0.1700  7.738408e+00  2.088261e+01  6.610878e+00  # C1A ch+
    247      12    1   0.1300  8.044417e+00  2.077645e+01  5.539775e+00  # H1 ch+
    248      12    5   0.0600  6.129754e+00  2.197296e+01  7.678905e+00  # HC ch+
    249      12    6   0.2750  6.356237e+00  2.157526e+01  6.669679e+00  # COL ch+
    250      12    5   0.0600  5.635489e+00  2.075407e+01  6.449602e+00  # HC ch+
    251      12    7   0.4180  6.320933e+00  2.350009e+01  6.139728e+00  # HO ch+
    252      12    8  -0.6830  6.195133e+00  2.258754e+01  5.678268e+00  # OH ch+
    253      13    1   0.1300  1.032664e+01  2.802000e+00  1.711666e+01  # H1 ch+
    254      13    2  -0.1700  9.505672e+00  2.721059e+00  1.637941e+01  # C1 ch+
    255      13    1   0.1300  9.205191e+00  1.662277e+00  1.626289e+01  # H1 ch+
    256      13    1   0.1300  8.655925e+00  3.368186e+00  1.667335e+01  # H1 ch+
    257      13    1   0.1300  1.203545e+01  2.699068e+00  1.556583e+01  # H1 ch+
    258      13    2  -0.1700  1.134111e+01  2.525541e+00  1.472237e+01  # C1 ch+
    259      13    1   0.1300  1.175245e+01  2.977963e+00  1.379994e+01  # H1 ch+
    260      13    1   0.1300  1.114670e+01  1.442907e+00  1.460558e+01  # H1 ch+
    261      13    3   0.1200  1.003402e+01  3.213269e+00  1.505244e+01  # N4 ch+
    262      13    1   0.1300  1.098543e+01  4.832893e+00  1.603370e+01  # H1 ch+
    263      13    2  -0.1700  1.031988e+01  4.696297e+00  1.515916e+01  # C1 ch+
    264      13    1   0.1300  1.084761e+01  4.987685e+00  1.423433e+01  # H1 ch+
    265      13    1   0.1300  9.373453e+00  5.242697e+00  1.530956e+01  # H1 ch+
    266      13    1   0.1300  8.994294e+00  1.772915e+00  1.393548e+01  # H1 ch+
    267      13    4  -0.1700  9.044787e+00  2.882887e+00  1.392793e+01  # C1A ch+
    268      13    1   0.1300  9.500585e+00  3.234921e+00  1.296851e+01  # H1 ch+
    269      13    5   0.0600  7.221890e+00  3.402606e+00  1.507869e+01  # HC ch+
    270      13    6   0.2750  7.614893e+00  3.462095e+00  1.404428e+01  # COL ch+
    271      13    5   0.0600  7.000894e+00  2.791349e+00  1.339980e+01  # HC ch+
    272      13    7   0.4180  7.492639e+00  5.432770e+00  1.434189e+01  # HO ch+
    273      13    8  -0.6830  7.506269e+00  4.790261e+00  1.353659e+01  # OH ch+
    274      14    1   0.1300  8.293935e+00  7.242702e+00  1.938837e+01  # H1 ch+
    275      14    2  -0.1700  7.486079e+00  7.377355e+00  2.013223e+01  # C1 ch+
    276      14    1   0.1300  7.213603e+00  8.447570e+00  2.020491e+01  # H1 ch+
    277      14    1   0.1300  6.616387e+00  6.739473e+00  1.987927e+01  # H1 ch+
    278      14    1   0.1300  1.002725e+01  7.371590e+00  2.090979e+01  # H1 ch+
    279      14    2  -0.1700  9.349815e+00  7.600250e+00  2.175385e+01  # C1 ch+
    280      14    1   0.1300  9.763279e+00  7.179288e+00  2.269011e+01  # H1 ch+
    281      14    1   0.1300  9.183955e+00  8.691607e+00  2.182429e+01  # H1 ch+
    282      14    3   0.1200  8.021430e+00  6.931801e+00  2.147281e+01  # N4 ch+
    283      14    1   0.1300  8.918067e+00  5.246271e+00  2.055287e+01  # H1 ch+
    284      14    2  -0.1700  8.268949e+00  5.438710e+00  2.142926e+01  # C1 ch+
    285      14    1   0.1300  8.802771e+00  5.175725e+00  2.235908e+01  # H1 ch+
    286      14    1   0.1300  7.307205e+00  4.910300e+00  2.131644e+01  # H1 ch+
    287      14    1   0.1300  7.034072e+00  8.446610e+00  2.253756e+01  # H1 ch+
    288      14    4  -0.1700  7.057211e+00  7.337166e+00  2.259450e+01  # C1A ch+
    289      14    1   0.1300  7.518139e+00  7.016988e+00  2.356259e+01  # H1 ch+
    290      14    5   0.0600  5.205398e+00  6.812844e+00  2.149305e+01  # HC ch+
    291      14    6   0.2750  5.611886e+00  6.789773e+00  2.252370e+01  # COL ch+
    292      14    5   0.0600  5.024144e+00  7.504049e+00  2.314549e+01  # HC ch+
    293      14    7   0.4180  5.436609e+00  4.811485e+00  2.231697e+01  # HO ch+
    294      14    8  -0.6830  5.477888e+00  5.488846e+00  2.309221e+01  # OH ch+
    295      15    1   0.1300  1.564563e+01  1.785531e+01  2.093860e+01  # H1 ch+
    296      15    2  -0.1700  1.567096e+01  1.693084e+01  2.033132e+01  # C1 ch+
    297      15    1   0.1300  1.602024e+01  1.608187e+01  2.094949e+01  # H1 ch+
    298      15    1   0.1300  1.467907e+01  1.673858e+01  1.987697e+01  # H1 ch+
    299      15    1   0.1300  1.776474e+01  1.856718e+01  2.035695e+01  # H1 ch+
    300      15    2  -0.1700  1.797780e+01  1.765196e+01  1.977334e+01  # C1 ch+
    301      15    1   0.1300  1.864867e+01  1.789527e+01  1.892748e+01  # H1 ch+
    302      15    1   0.1300  1.840217e+01  1.687071e+01  2.043144e+01  # H1 ch+
    303      15    3   0.1200  1.666556e+01  1.714567e+01  1.921467e+01  # N4 ch+
    304      15    1   0.1300  1.589619e+01  1.909617e+01  1.890666e+01  # H1 ch+
    305      15    2  -0.1700  1.613164e+01  1.821240e+01  1.828220e+01  # C1 ch+
    306      15    1   0.1300  1.694425e+01  1.845546e+01  1.757560e+01  # H1 ch+
    307      15    1   0.1300  1.521969e+01  1.784178e+01  1.778431e+01  # H1 ch+
    308      15    1   0.1300  1.739446e+01  1.517921e+01  1.928508e+01  # H1 ch+
    309      15    4  -0.1700  1.695342e+01  1.582282e+01  1.849395e+01  # C1A ch+
    310      15    1   0.1300  1.771918e+01  1.603231e+01  1.770534e+01  # H1 ch+
    311      15    5   0.0600  1.485220e+01  1.511421e+01  1.848700e+01  # HC ch+
    312      15    6   0.2750  1.575530e+01  1.508980e+01  1.784527e+01  # COL ch+
    313      15    5   0.0600  1.609841e+01  1.403220e+01  1.776771e+01  # HC ch+
    314      15    7   0.4180  1.463590e+01  1.617815e+01  1.660047e+01  # HO ch+
    315      15    8  -0.6830  1.545667e+01  1.555912e+01  1.653220e+01  # OH ch+
    316      16    1   0.1300  1.866388e+00  9.813029e+00  2.048960e+01  # H1 ch+
    317      16    2  -0.1700  2.954352e+00  1.001381e+01  2.049982e+01  # C1 ch+
    318      16    1   0.1300  3.502857e+00  9.108492e+00  2.082299e+01  # H1 ch+
    319      16    1   0.1300  3.290648e+00  1.037631e+01  1.950849e+01  # H1 ch+
    320      16    1   0.1300  1.472754e+00  1.058593e+01  2.263048e+01  # H1 ch+
    321      16    2  -0.1700  2.546259e+00  1.076501e+01  2.282834e+01  # C1 ch+
    322      16    1   0.1300  2.661865e+00  1.162649e+01  2.351335e+01  # H1 ch+
    323      16    1   0.1300  3.018168e+00  9.847768e+00  2.322773e+01  # H1 ch+
    324      16    3   0.1200  3.206870e+00  1.110782e+01  2.151058e+01  # N4 ch+
    325      16    1   0.1300  1.515704e+00  1.216213e+01  2.078972e+01  # H1 ch+
    326      16    2  -0.1700  2.576468e+00  1.239063e+01  2.101112e+01  # C1 ch+
    327      16    1   0.1300  2.640719e+00  1.312105e+01  2.183638e+01  # H1 ch+
    328      16    1   0.1300  3.095395e+00  1.272264e+01  2.009603e+01  # H1 ch+
    329      16    1   0.1300  5.004238e+00  1.026704e+01  2.219307e+01  # H1 ch+