LAMMPS (29 Oct 2020)
# IL (CL&P), water (SWM4-NDP) equilibration using fix/rigid for water

units           real
boundary        p p p
neighbor        2.0 bin
neigh_modify    every 1 delay 0 check yes

atom_style      full
bond_style      harmonic
angle_style     harmonic
dihedral_style  opls
improper_style  cvff

pair_style      hybrid/overlay lj/cut/coul/long 12 12 coul/long/cs 12.0 thole 2.6 12.0 coul/tt 4 12.0
pair_modify     tail yes
kspace_style    pppm 1e-5
special_bonds   lj/coul 0.0 0.0 0.5

read_data pdata.lmp extra/special/per/atom 3
Reading data file ...
  orthogonal box = (0.0000000 0.0000000 0.0000000) to (25.000000 25.000000 25.000000)
  1 by 1 by 2 MPI processor grid
  reading atoms ...
  1300 atoms
  scanning bonds ...
  5 = max bonds/atom
  scanning angles ...
  6 = max angles/atom
  scanning dihedrals ...
  18 = max dihedrals/atom
  reading bonds ...
  1160 bonds
  reading angles ...
  1000 angles
  reading dihedrals ...
  1080 dihedrals
Finding 1-2 1-3 1-4 neighbors ...
  special bond factors lj:    0.0      0.0      0.5     
  special bond factors coul:  0.0      0.0      0.5     
     5 = max # of 1-2 neighbors
    16 = max # of 1-3 neighbors
    22 = max # of 1-4 neighbors
    30 = max # of special neighbors
  special bonds CPU = 0.001 seconds
  read_data CPU = 0.008 seconds
include pair-drude.lmp
# Added pair interactions from input_polariser script
pair_coeff    1    1 lj/cut/coul/long     0.030000     2.500000  # H1 H1
pair_coeff 1 2 lj/cut/coul/long 0.04450 2.95804 # H1 C1
pair_coeff 1 3 lj/cut/coul/long 0.07141 2.85044 # H1 N4
pair_coeff 1 4 lj/cut/coul/long 0.04450 2.95804 # H1 C1A
pair_coeff 1 5 lj/cut/coul/long 0.03000 2.50000 # H1 HC
pair_coeff 1 6 lj/cut/coul/long 0.04450 2.95804 # H1 COL
pair_coeff 1 7 lj/cut/coul/long 0.00000 0.00000 # H1 HO
pair_coeff 1 8 lj/cut/coul/long 0.07141 2.79285 # H1 OH
pair_coeff 1 9 lj/cut/coul/long 0.09165 3.27872 # H1 P00
pair_coeff 1 10 lj/cut/coul/long 0.04583 2.91548 # H1 O01
pair_coeff 1 11 lj/cut/coul/long 0.04583 2.91548 # H1 O02
pair_coeff 1 12 lj/cut/coul/long 0.04899 3.04138 # H1 OH3
pair_coeff 1 13 lj/cut/coul/long 0.00000 0.00000 # H1 HO4
pair_coeff 1 14 lj/cut/coul/long 0.04899 3.04138 # H1 OH5
pair_coeff 1 15 lj/cut/coul/long 0.00000 0.00000 # H1 HO6
pair_coeff 1 16 lj/cut/coul/long 0.07955 2.82133 # H1 OHw
pair_coeff 1 17 lj/cut/coul/long 0.00000 0.00000 # H1 HOw
pair_coeff 1 18 lj/cut/coul/long 0.00000 0.00000 # H1 M
pair_coeff    2    2 lj/cut/coul/long     0.065999     3.500000  # C1 C1
pair_coeff 2 3 lj/cut/coul/long 0.10592 3.37268 # C1 N4
pair_coeff 2 4 lj/cut/coul/long 0.06600 3.50000 # C1 C1A
pair_coeff 2 5 lj/cut/coul/long 0.04450 2.95804 # C1 HC
pair_coeff 2 6 lj/cut/coul/long 0.06600 3.50000 # C1 COL
pair_coeff 2 7 lj/cut/coul/long 0.00000 0.00000 # C1 HO
pair_coeff 2 8 lj/cut/coul/long 0.10592 3.30454 # C1 OH
pair_coeff 2 9 lj/cut/coul/long 0.13594 3.87943 # C1 P00
pair_coeff 2 10 lj/cut/coul/long 0.06797 3.44964 # C1 O01
pair_coeff 2 11 lj/cut/coul/long 0.06797 3.44964 # C1 O02
pair_coeff 2 12 lj/cut/coul/long 0.07266 3.59861 # C1 OH3
pair_coeff 2 13 lj/cut/coul/long 0.00000 0.00000 # C1 HO4
pair_coeff 2 14 lj/cut/coul/long 0.07266 3.59861 # C1 OH5
pair_coeff 2 15 lj/cut/coul/long 0.00000 0.00000 # C1 HO6
pair_coeff 2 16 lj/cut/coul/long 0.11799 3.33824 # C1 OHw
pair_coeff 2 17 lj/cut/coul/long 0.00000 0.00000 # C1 HOw
pair_coeff 2 18 lj/cut/coul/long 0.00000 0.00000 # C1 M
pair_coeff    3    3 lj/cut/coul/long     0.170000     3.250000  # N4 N4
pair_coeff 3 4 lj/cut/coul/long 0.10592 3.37268 # N4 C1A
pair_coeff 3 5 lj/cut/coul/long 0.07141 2.85044 # N4 HC
pair_coeff 3 6 lj/cut/coul/long 0.10592 3.37268 # N4 COL
pair_coeff 3 7 lj/cut/coul/long 0.00000 0.00000 # N4 HO
pair_coeff 3 8 lj/cut/coul/long 0.17000 3.18434 # N4 OH
pair_coeff 3 9 lj/cut/coul/long 0.21817 3.73832 # N4 P00
pair_coeff 3 10 lj/cut/coul/long 0.10909 3.32415 # N4 O01
pair_coeff 3 11 lj/cut/coul/long 0.10909 3.32415 # N4 O02
pair_coeff 3 12 lj/cut/coul/long 0.11662 3.46771 # N4 OH3
pair_coeff 3 13 lj/cut/coul/long 0.00000 0.00000 # N4 HO4
pair_coeff 3 14 lj/cut/coul/long 0.11662 3.46771 # N4 OH5
pair_coeff 3 15 lj/cut/coul/long 0.00000 0.00000 # N4 HO6
pair_coeff 3 16 lj/cut/coul/long 0.18937 3.21681 # N4 OHw
pair_coeff 3 17 lj/cut/coul/long 0.00000 0.00000 # N4 HOw
pair_coeff 3 18 lj/cut/coul/long 0.00000 0.00000 # N4 M
pair_coeff    4    4 lj/cut/coul/long     0.065999     3.500000  # C1A C1A
pair_coeff 4 5 lj/cut/coul/long 0.04450 2.95804 # C1A HC
pair_coeff 4 6 lj/cut/coul/long 0.06600 3.50000 # C1A COL
pair_coeff 4 7 lj/cut/coul/long 0.00000 0.00000 # C1A HO
pair_coeff 4 8 lj/cut/coul/long 0.10592 3.30454 # C1A OH
pair_coeff 4 9 lj/cut/coul/long 0.13594 3.87943 # C1A P00
pair_coeff 4 10 lj/cut/coul/long 0.06797 3.44964 # C1A O01
pair_coeff 4 11 lj/cut/coul/long 0.06797 3.44964 # C1A O02
pair_coeff 4 12 lj/cut/coul/long 0.07266 3.59861 # C1A OH3
pair_coeff 4 13 lj/cut/coul/long 0.00000 0.00000 # C1A HO4
pair_coeff 4 14 lj/cut/coul/long 0.07266 3.59861 # C1A OH5
pair_coeff 4 15 lj/cut/coul/long 0.00000 0.00000 # C1A HO6
pair_coeff 4 16 lj/cut/coul/long 0.11799 3.33824 # C1A OHw
pair_coeff 4 17 lj/cut/coul/long 0.00000 0.00000 # C1A HOw
pair_coeff 4 18 lj/cut/coul/long 0.00000 0.00000 # C1A M
pair_coeff    5    5 lj/cut/coul/long     0.030000     2.500000  # HC HC
pair_coeff 5 6 lj/cut/coul/long 0.04450 2.95804 # HC COL
pair_coeff 5 7 lj/cut/coul/long 0.00000 0.00000 # HC HO
pair_coeff 5 8 lj/cut/coul/long 0.07141 2.79285 # HC OH
pair_coeff 5 9 lj/cut/coul/long 0.09165 3.27872 # HC P00
pair_coeff 5 10 lj/cut/coul/long 0.04583 2.91548 # HC O01
pair_coeff 5 11 lj/cut/coul/long 0.04583 2.91548 # HC O02
pair_coeff 5 12 lj/cut/coul/long 0.04899 3.04138 # HC OH3
pair_coeff 5 13 lj/cut/coul/long 0.00000 0.00000 # HC HO4
pair_coeff 5 14 lj/cut/coul/long 0.04899 3.04138 # HC OH5
pair_coeff 5 15 lj/cut/coul/long 0.00000 0.00000 # HC HO6
pair_coeff 5 16 lj/cut/coul/long 0.07955 2.82133 # HC OHw
pair_coeff 5 17 lj/cut/coul/long 0.00000 0.00000 # HC HOw
pair_coeff 5 18 lj/cut/coul/long 0.00000 0.00000 # HC M
pair_coeff    6    6 lj/cut/coul/long     0.065999     3.500000  # COL COL
pair_coeff 6 7 lj/cut/coul/long 0.00000 0.00000 # COL HO
pair_coeff 6 8 lj/cut/coul/long 0.10592 3.30454 # COL OH
pair_coeff 6 9 lj/cut/coul/long 0.13594 3.87943 # COL P00
pair_coeff 6 10 lj/cut/coul/long 0.06797 3.44964 # COL O01
pair_coeff 6 11 lj/cut/coul/long 0.06797 3.44964 # COL O02
pair_coeff 6 12 lj/cut/coul/long 0.07266 3.59861 # COL OH3
pair_coeff 6 13 lj/cut/coul/long 0.00000 0.00000 # COL HO4
pair_coeff 6 14 lj/cut/coul/long 0.07266 3.59861 # COL OH5
pair_coeff 6 15 lj/cut/coul/long 0.00000 0.00000 # COL HO6
pair_coeff 6 16 lj/cut/coul/long 0.11799 3.33824 # COL OHw
pair_coeff 6 17 lj/cut/coul/long 0.00000 0.00000 # COL HOw
pair_coeff 6 18 lj/cut/coul/long 0.00000 0.00000 # COL M
pair_coeff    7    7 lj/cut/coul/long     0.000000     0.000000  # HO HO
pair_coeff 7 8 lj/cut/coul/long 0.00000 0.00000 # HO OH
pair_coeff 7 9 lj/cut/coul/long 0.00000 0.00000 # HO P00
pair_coeff 7 10 lj/cut/coul/long 0.00000 0.00000 # HO O01
pair_coeff 7 11 lj/cut/coul/long 0.00000 0.00000 # HO O02
pair_coeff 7 12 lj/cut/coul/long 0.00000 0.00000 # HO OH3
pair_coeff 7 13 lj/cut/coul/long 0.00000 0.00000 # HO HO4
pair_coeff 7 14 lj/cut/coul/long 0.00000 0.00000 # HO OH5
pair_coeff 7 15 lj/cut/coul/long 0.00000 0.00000 # HO HO6
pair_coeff 7 16 lj/cut/coul/long 0.00000 0.00000 # HO OHw
pair_coeff 7 17 lj/cut/coul/long 0.00000 0.00000 # HO HOw
pair_coeff 7 18 lj/cut/coul/long 0.00000 0.00000 # HO M
pair_coeff    8    8 lj/cut/coul/long     0.170000     3.120000  # OH OH
pair_coeff 8 9 lj/cut/coul/long 0.21817 3.66279 # OH P00
pair_coeff 8 10 lj/cut/coul/long 0.10909 3.25699 # OH O01
pair_coeff 8 11 lj/cut/coul/long 0.10909 3.25699 # OH O02
pair_coeff 8 12 lj/cut/coul/long 0.11662 3.39765 # OH OH3
pair_coeff 8 13 lj/cut/coul/long 0.00000 0.00000 # OH HO4
pair_coeff 8 14 lj/cut/coul/long 0.11662 3.39765 # OH OH5
pair_coeff 8 15 lj/cut/coul/long 0.00000 0.00000 # OH HO6
pair_coeff 8 16 lj/cut/coul/long 0.18937 3.15181 # OH OHw
pair_coeff 8 17 lj/cut/coul/long 0.00000 0.00000 # OH HOw
pair_coeff 8 18 lj/cut/coul/long 0.00000 0.00000 # OH M
pair_coeff    9    9 lj/cut/coul/long     0.280000     4.300000  # P00 P00
pair_coeff 9 10 lj/cut/coul/long 0.14000 3.82361 # P00 O01
pair_coeff 9 11 lj/cut/coul/long 0.14000 3.82361 # P00 O02
pair_coeff 9 12 lj/cut/coul/long 0.14967 3.98873 # P00 OH3
pair_coeff 9 13 lj/cut/coul/long 0.00000 0.00000 # P00 HO4
pair_coeff 9 14 lj/cut/coul/long 0.14967 3.98873 # P00 OH5
pair_coeff 9 15 lj/cut/coul/long 0.00000 0.00000 # P00 HO6
pair_coeff 9 16 lj/cut/coul/long 0.24303 3.70013 # P00 OHw
pair_coeff 9 17 lj/cut/coul/long 0.00000 0.00000 # P00 HOw
pair_coeff 9 18 lj/cut/coul/long 0.00000 0.00000 # P00 M
pair_coeff   10   10 lj/cut/coul/long     0.070000     3.400000  # O01 O01
pair_coeff 10 11 lj/cut/coul/long 0.07000 3.40000 # O01 O02
pair_coeff 10 12 lj/cut/coul/long 0.07483 3.54683 # O01 OH3
pair_coeff 10 13 lj/cut/coul/long 0.00000 0.00000 # O01 HO4
pair_coeff 10 14 lj/cut/coul/long 0.07483 3.54683 # O01 OH5
pair_coeff 10 15 lj/cut/coul/long 0.00000 0.00000 # O01 HO6
pair_coeff 10 16 lj/cut/coul/long 0.12151 3.29020 # O01 OHw
pair_coeff 10 17 lj/cut/coul/long 0.00000 0.00000 # O01 HOw
pair_coeff 10 18 lj/cut/coul/long 0.00000 0.00000 # O01 M
pair_coeff   11   11 lj/cut/coul/long     0.070000     3.400000  # O02 O02
pair_coeff 11 12 lj/cut/coul/long 0.07483 3.54683 # O02 OH3
pair_coeff 11 13 lj/cut/coul/long 0.00000 0.00000 # O02 HO4
pair_coeff 11 14 lj/cut/coul/long 0.07483 3.54683 # O02 OH5
pair_coeff 11 15 lj/cut/coul/long 0.00000 0.00000 # O02 HO6
pair_coeff 11 16 lj/cut/coul/long 0.12151 3.29020 # O02 OHw
pair_coeff 11 17 lj/cut/coul/long 0.00000 0.00000 # O02 HOw
pair_coeff 11 18 lj/cut/coul/long 0.00000 0.00000 # O02 M
pair_coeff   12   12 lj/cut/coul/long     0.080000     3.700000  # OH3 OH3
pair_coeff 12 13 lj/cut/coul/long 0.00000 0.00000 # OH3 HO4
pair_coeff 12 14 lj/cut/coul/long 0.08000 3.70000 # OH3 OH5
pair_coeff 12 15 lj/cut/coul/long 0.00000 0.00000 # OH3 HO6
pair_coeff 12 16 lj/cut/coul/long 0.12990 3.43229 # OH3 OHw
pair_coeff 12 17 lj/cut/coul/long 0.00000 0.00000 # OH3 HOw
pair_coeff 12 18 lj/cut/coul/long 0.00000 0.00000 # OH3 M
pair_coeff   13   13 lj/cut/coul/long     0.000000     0.000000  # HO4 HO4
pair_coeff 13 14 lj/cut/coul/long 0.00000 0.00000 # HO4 OH5
pair_coeff 13 15 lj/cut/coul/long 0.00000 0.00000 # HO4 HO6
pair_coeff 13 16 lj/cut/coul/long 0.00000 0.00000 # HO4 OHw
pair_coeff 13 17 lj/cut/coul/long 0.00000 0.00000 # HO4 HOw
pair_coeff 13 18 lj/cut/coul/long 0.00000 0.00000 # HO4 M
pair_coeff   14   14 lj/cut/coul/long     0.080000     3.700000  # OH5 OH5
pair_coeff 14 15 lj/cut/coul/long 0.00000 0.00000 # OH5 HO6
pair_coeff 14 16 lj/cut/coul/long 0.12990 3.43229 # OH5 OHw
pair_coeff 14 17 lj/cut/coul/long 0.00000 0.00000 # OH5 HOw
pair_coeff 14 18 lj/cut/coul/long 0.00000 0.00000 # OH5 M
pair_coeff   15   15 lj/cut/coul/long     0.000000     0.000000  # HO6 HO6
pair_coeff 15 16 lj/cut/coul/long 0.00000 0.00000 # HO6 OHw
pair_coeff 15 17 lj/cut/coul/long 0.00000 0.00000 # HO6 HOw
pair_coeff 15 18 lj/cut/coul/long 0.00000 0.00000 # HO6 M
pair_coeff   16   16 lj/cut/coul/long     0.210939     3.183950  # OHw OHw
pair_coeff 16 17 lj/cut/coul/long 0.00000 0.00000 # OHw HOw
pair_coeff 16 18 lj/cut/coul/long 0.00000 0.00000 # OHw M
pair_coeff   17   17 lj/cut/coul/long     0.000000     0.000000  # HOw HOw
pair_coeff 17 18 lj/cut/coul/long 0.00000 0.00000 # HOw M
pair_coeff   18   18 lj/cut/coul/long     0.000000     0.000000  # M M
# interactions involving Drude particles
pair_coeff    *  19* coul/long/cs
# Thole damping if more than 1 Drude per molecule
pair_coeff    2    2 thole   1.660
pair_coeff    2    3 thole   1.497
pair_coeff    2    4 thole   1.645
pair_coeff    2    6 thole   1.620
pair_coeff    2    8 thole   1.301
pair_coeff    2    9 thole   1.491
pair_coeff    2   10 thole   1.486
pair_coeff    2   11 thole   1.497
pair_coeff    2   12 thole   1.491
pair_coeff    2   14 thole   1.491
pair_coeff    2   16 thole   1.274
pair_coeff    2   19 thole   1.660
pair_coeff    2   20 thole   1.497
pair_coeff    2   21 thole   1.645
pair_coeff    2   22 thole   1.620
pair_coeff    2   23 thole   1.301
pair_coeff    2   24 thole   1.491
pair_coeff    2   25 thole   1.486
pair_coeff    2   26 thole   1.497
pair_coeff    2   27 thole   1.491
pair_coeff    2   28 thole   1.491
pair_coeff    2   29 thole   1.274
pair_coeff    3    3 thole   1.350
pair_coeff    3    4 thole   1.483
pair_coeff    3    6 thole   1.460
pair_coeff    3    8 thole   1.173
pair_coeff    3    9 thole   1.345
pair_coeff    3   10 thole   1.340
pair_coeff    3   11 thole   1.350
pair_coeff    3   12 thole   1.345
pair_coeff    3   14 thole   1.345
pair_coeff    3   16 thole   1.149
pair_coeff    3   19 thole   1.497
pair_coeff    3   20 thole   1.350
pair_coeff    3   21 thole   1.483
pair_coeff    3   22 thole   1.460
pair_coeff    3   23 thole   1.173
pair_coeff    3   24 thole   1.345
pair_coeff    3   25 thole   1.340
pair_coeff    3   26 thole   1.350
pair_coeff    3   27 thole   1.345
pair_coeff    3   28 thole   1.345
pair_coeff    3   29 thole   1.149
pair_coeff    4    4 thole   1.630
pair_coeff    4    6 thole   1.605
pair_coeff    4    8 thole   1.289
pair_coeff    4    9 thole   1.478
pair_coeff    4   10 thole   1.472
pair_coeff    4   11 thole   1.483
pair_coeff    4   12 thole   1.478
pair_coeff    4   14 thole   1.478
pair_coeff    4   16 thole   1.263
pair_coeff    4   19 thole   1.645
pair_coeff    4   20 thole   1.483
pair_coeff    4   21 thole   1.630
pair_coeff    4   22 thole   1.605
pair_coeff    4   23 thole   1.289
pair_coeff    4   24 thole   1.478
pair_coeff    4   25 thole   1.472
pair_coeff    4   26 thole   1.483
pair_coeff    4   27 thole   1.478
pair_coeff    4   28 thole   1.478
pair_coeff    4   29 thole   1.263
pair_coeff    6    6 thole   1.580
pair_coeff    6    8 thole   1.269
pair_coeff    6    9 thole   1.455
pair_coeff    6   10 thole   1.450
pair_coeff    6   11 thole   1.460
pair_coeff    6   12 thole   1.455
pair_coeff    6   14 thole   1.455
pair_coeff    6   16 thole   1.243
pair_coeff    6   19 thole   1.620
pair_coeff    6   20 thole   1.460
pair_coeff    6   21 thole   1.605
pair_coeff    6   22 thole   1.580
pair_coeff    6   23 thole   1.269
pair_coeff    6   24 thole   1.455
pair_coeff    6   25 thole   1.450
pair_coeff    6   26 thole   1.460
pair_coeff    6   27 thole   1.455
pair_coeff    6   28 thole   1.455
pair_coeff    6   29 thole   1.243
pair_coeff    8    8 thole   1.020
pair_coeff    8    9 thole   1.169
pair_coeff    8   10 thole   1.165
pair_coeff    8   11 thole   1.173
pair_coeff    8   12 thole   1.169
pair_coeff    8   14 thole   1.169
pair_coeff    8   16 thole   0.999
pair_coeff    8   19 thole   1.301
pair_coeff    8   20 thole   1.173
pair_coeff    8   21 thole   1.289
pair_coeff    8   22 thole   1.269
pair_coeff    8   23 thole   1.020
pair_coeff    8   24 thole   1.169
pair_coeff    8   25 thole   1.165
pair_coeff    8   26 thole   1.173
pair_coeff    8   27 thole   1.169
pair_coeff    8   28 thole   1.169
pair_coeff    8   29 thole   0.999
pair_coeff    9    9 thole   1.340
pair_coeff    9   10 thole   1.335
pair_coeff    9   11 thole   1.345
pair_coeff    9   12 thole   1.340
pair_coeff    9   14 thole   1.340
pair_coeff    9   16 thole   1.145
pair_coeff    9   19 thole   1.491
pair_coeff    9   20 thole   1.345
pair_coeff    9   21 thole   1.478
pair_coeff    9   22 thole   1.455
pair_coeff    9   23 thole   1.169
pair_coeff    9   24 thole   1.340
pair_coeff    9   25 thole   1.335
pair_coeff    9   26 thole   1.345
pair_coeff    9   27 thole   1.340
pair_coeff    9   28 thole   1.340
pair_coeff    9   29 thole   1.145
pair_coeff   10   10 thole   1.330
pair_coeff   10   11 thole   1.340
pair_coeff   10   12 thole   1.335
pair_coeff   10   14 thole   1.335
pair_coeff   10   16 thole   1.140
pair_coeff   10   19 thole   1.486
pair_coeff   10   20 thole   1.340
pair_coeff   10   21 thole   1.472
pair_coeff   10   22 thole   1.450
pair_coeff   10   23 thole   1.165
pair_coeff   10   24 thole   1.335
pair_coeff   10   25 thole   1.330
pair_coeff   10   26 thole   1.340
pair_coeff   10   27 thole   1.335
pair_coeff   10   28 thole   1.335
pair_coeff   10   29 thole   1.140
pair_coeff   11   11 thole   1.350
pair_coeff   11   12 thole   1.345
pair_coeff   11   14 thole   1.345
pair_coeff   11   16 thole   1.149
pair_coeff   11   19 thole   1.497
pair_coeff   11   20 thole   1.350
pair_coeff   11   21 thole   1.483
pair_coeff   11   22 thole   1.460
pair_coeff   11   23 thole   1.173
pair_coeff   11   24 thole   1.345
pair_coeff   11   25 thole   1.340
pair_coeff   11   26 thole   1.350
pair_coeff   11   27 thole   1.345
pair_coeff   11   28 thole   1.345
pair_coeff   11   29 thole   1.149
pair_coeff   12   12 thole   1.340
pair_coeff   12   14 thole   1.340
pair_coeff   12   16 thole   1.145
pair_coeff   12   19 thole   1.491
pair_coeff   12   20 thole   1.345
pair_coeff   12   21 thole   1.478
pair_coeff   12   22 thole   1.455
pair_coeff   12   23 thole   1.169
pair_coeff   12   24 thole   1.340
pair_coeff   12   25 thole   1.335
pair_coeff   12   26 thole   1.345
pair_coeff   12   27 thole   1.340
pair_coeff   12   28 thole   1.340
pair_coeff   12   29 thole   1.145
pair_coeff   14   14 thole   1.340
pair_coeff   14   16 thole   1.145
pair_coeff   14   19 thole   1.491
pair_coeff   14   20 thole   1.345
pair_coeff   14   21 thole   1.478
pair_coeff   14   22 thole   1.455
pair_coeff   14   23 thole   1.169
pair_coeff   14   24 thole   1.340
pair_coeff   14   25 thole   1.335
pair_coeff   14   26 thole   1.345
pair_coeff   14   27 thole   1.340
pair_coeff   14   28 thole   1.340
pair_coeff   14   29 thole   1.145
pair_coeff   16   16 thole   0.978
pair_coeff   16   19 thole   1.274
pair_coeff   16   20 thole   1.149
pair_coeff   16   21 thole   1.263
pair_coeff   16   22 thole   1.243
pair_coeff   16   23 thole   0.999
pair_coeff   16   24 thole   1.145
pair_coeff   16   25 thole   1.140
pair_coeff   16   26 thole   1.149
pair_coeff   16   27 thole   1.145
pair_coeff   16   28 thole   1.145
pair_coeff   16   29 thole   0.978
pair_coeff   19   19 thole   1.660
pair_coeff   19   20 thole   1.497
pair_coeff   19   21 thole   1.645
pair_coeff   19   22 thole   1.620
pair_coeff   19   23 thole   1.301
pair_coeff   19   24 thole   1.491
pair_coeff   19   25 thole   1.486
pair_coeff   19   26 thole   1.497
pair_coeff   19   27 thole   1.491
pair_coeff   19   28 thole   1.491
pair_coeff   19   29 thole   1.274
pair_coeff   20   20 thole   1.350
pair_coeff   20   21 thole   1.483
pair_coeff   20   22 thole   1.460
pair_coeff   20   23 thole   1.173
pair_coeff   20   24 thole   1.345
pair_coeff   20   25 thole   1.340
pair_coeff   20   26 thole   1.350
pair_coeff   20   27 thole   1.345
pair_coeff   20   28 thole   1.345
pair_coeff   20   29 thole   1.149
pair_coeff   21   21 thole   1.630
pair_coeff   21   22 thole   1.605
pair_coeff   21   23 thole   1.289
pair_coeff   21   24 thole   1.478
pair_coeff   21   25 thole   1.472
pair_coeff   21   26 thole   1.483
pair_coeff   21   27 thole   1.478
pair_coeff   21   28 thole   1.478
pair_coeff   21   29 thole   1.263
pair_coeff   22   22 thole   1.580
pair_coeff   22   23 thole   1.269
pair_coeff   22   24 thole   1.455
pair_coeff   22   25 thole   1.450
pair_coeff   22   26 thole   1.460
pair_coeff   22   27 thole   1.455
pair_coeff   22   28 thole   1.455
pair_coeff   22   29 thole   1.243
pair_coeff   23   23 thole   1.020
pair_coeff   23   24 thole   1.169
pair_coeff   23   25 thole   1.165
pair_coeff   23   26 thole   1.173
pair_coeff   23   27 thole   1.169
pair_coeff   23   28 thole   1.169
pair_coeff   23   29 thole   0.999
pair_coeff   24   24 thole   1.340
pair_coeff   24   25 thole   1.335
pair_coeff   24   26 thole   1.345
pair_coeff   24   27 thole   1.340
pair_coeff   24   28 thole   1.340
pair_coeff   24   29 thole   1.145
pair_coeff   25   25 thole   1.330
pair_coeff   25   26 thole   1.340
pair_coeff   25   27 thole   1.335
pair_coeff   25   28 thole   1.335
pair_coeff   25   29 thole   1.140
pair_coeff   26   26 thole   1.350
pair_coeff   26   27 thole   1.345
pair_coeff   26   28 thole   1.345
pair_coeff   26   29 thole   1.149
pair_coeff   27   27 thole   1.340
pair_coeff   27   28 thole   1.340
pair_coeff   27   29 thole   1.145
pair_coeff   28   28 thole   1.340
pair_coeff   28   29 thole   1.145
pair_coeff   29   29 thole   0.978
# Adding Tang-Toennies damping to prone hydrogens
pair_coeff 2 7 coul/tt 4.5 1.0
pair_coeff 3 7 coul/tt 4.5 1.0
pair_coeff 4 7 coul/tt 4.5 1.0
pair_coeff 6 7 coul/tt 4.5 1.0
pair_coeff 7 8 coul/tt 4.5 1.0
pair_coeff 7 9 coul/tt 4.5 1.0
pair_coeff 7 10 coul/tt 4.5 1.0
pair_coeff 7 11 coul/tt 4.5 1.0
pair_coeff 7 12 coul/tt 4.5 1.0
pair_coeff 7 14 coul/tt 4.5 1.0
pair_coeff 7 16 coul/tt 4.5 1.0
pair_coeff 7 19 coul/tt 4.5 1.0
pair_coeff 7 20 coul/tt 4.5 1.0
pair_coeff 7 21 coul/tt 4.5 1.0
pair_coeff 7 22 coul/tt 4.5 1.0
pair_coeff 7 23 coul/tt 4.5 1.0
pair_coeff 7 24 coul/tt 4.5 1.0
pair_coeff 7 25 coul/tt 4.5 1.0
pair_coeff 7 26 coul/tt 4.5 1.0
pair_coeff 7 27 coul/tt 4.5 1.0
pair_coeff 7 28 coul/tt 4.5 1.0
pair_coeff 7 29 coul/tt 4.5 1.0
pair_coeff 2 13 coul/tt 4.5 1.0
pair_coeff 3 13 coul/tt 4.5 1.0
pair_coeff 4 13 coul/tt 4.5 1.0
pair_coeff 6 13 coul/tt 4.5 1.0
pair_coeff 8 13 coul/tt 4.5 1.0
pair_coeff 9 13 coul/tt 4.5 1.0
pair_coeff 10 13 coul/tt 4.5 1.0
pair_coeff 11 13 coul/tt 4.5 1.0
pair_coeff 12 13 coul/tt 4.5 1.0
pair_coeff 13 14 coul/tt 4.5 1.0
pair_coeff 13 16 coul/tt 4.5 1.0
pair_coeff 13 19 coul/tt 4.5 1.0
pair_coeff 13 20 coul/tt 4.5 1.0
pair_coeff 13 21 coul/tt 4.5 1.0
pair_coeff 13 22 coul/tt 4.5 1.0
pair_coeff 13 23 coul/tt 4.5 1.0
pair_coeff 13 24 coul/tt 4.5 1.0
pair_coeff 13 25 coul/tt 4.5 1.0
pair_coeff 13 26 coul/tt 4.5 1.0
pair_coeff 13 27 coul/tt 4.5 1.0
pair_coeff 13 28 coul/tt 4.5 1.0
pair_coeff 13 29 coul/tt 4.5 1.0
pair_coeff 2 15 coul/tt 4.5 1.0
pair_coeff 3 15 coul/tt 4.5 1.0
pair_coeff 4 15 coul/tt 4.5 1.0
pair_coeff 6 15 coul/tt 4.5 1.0
pair_coeff 8 15 coul/tt 4.5 1.0
pair_coeff 9 15 coul/tt 4.5 1.0
pair_coeff 10 15 coul/tt 4.5 1.0
pair_coeff 11 15 coul/tt 4.5 1.0
pair_coeff 12 15 coul/tt 4.5 1.0
pair_coeff 14 15 coul/tt 4.5 1.0
pair_coeff 15 16 coul/tt 4.5 1.0
pair_coeff 15 19 coul/tt 4.5 1.0
pair_coeff 15 20 coul/tt 4.5 1.0
pair_coeff 15 21 coul/tt 4.5 1.0
pair_coeff 15 22 coul/tt 4.5 1.0
pair_coeff 15 23 coul/tt 4.5 1.0
pair_coeff 15 24 coul/tt 4.5 1.0
pair_coeff 15 25 coul/tt 4.5 1.0
pair_coeff 15 26 coul/tt 4.5 1.0
pair_coeff 15 27 coul/tt 4.5 1.0
pair_coeff 15 28 coul/tt 4.5 1.0
pair_coeff 15 29 coul/tt 4.5 1.0
pair_coeff 2 17 coul/tt 4.5 1.0
pair_coeff 3 17 coul/tt 4.5 1.0
pair_coeff 4 17 coul/tt 4.5 1.0
pair_coeff 6 17 coul/tt 4.5 1.0
pair_coeff 8 17 coul/tt 4.5 1.0
pair_coeff 9 17 coul/tt 4.5 1.0
pair_coeff 10 17 coul/tt 4.5 1.0
pair_coeff 11 17 coul/tt 4.5 1.0
pair_coeff 12 17 coul/tt 4.5 1.0
pair_coeff 14 17 coul/tt 4.5 1.0
pair_coeff 16 17 coul/tt 4.5 1.0
pair_coeff 17 19 coul/tt 4.5 1.0
pair_coeff 17 20 coul/tt 4.5 1.0
pair_coeff 17 21 coul/tt 4.5 1.0
pair_coeff 17 22 coul/tt 4.5 1.0
pair_coeff 17 23 coul/tt 4.5 1.0
pair_coeff 17 24 coul/tt 4.5 1.0
pair_coeff 17 25 coul/tt 4.5 1.0
pair_coeff 17 26 coul/tt 4.5 1.0
pair_coeff 17 27 coul/tt 4.5 1.0
pair_coeff 17 28 coul/tt 4.5 1.0
pair_coeff 17 29 coul/tt 4.5 1.0

group ATOMS type 1 2 3 4 5 6 7 8 9 10 11 12 13 14 15 16 17 18
960 atoms in group ATOMS
group CORES type 2 3 4 6 8 9 10 11 12 14 16
340 atoms in group CORES
group DRUDES type 19 20 21 22 23 24 25 26 27 28 29
340 atoms in group DRUDES
group WATER type 16 17 18
400 atoms in group WATER
group IL     subtract ATOMS WATER
560 atoms in group IL

fix DRUDE all drude N C C C N C N C C C C C N C N C N N D D D D D D D D D D D
fix ICECUBE all momentum 100 linear 1 1 1
fix SHAKE ATOMS shake 0.0001 20 0 b 1 5 10 11
      60 = # of size 2 clusters
      40 = # of size 3 clusters
      60 = # of size 4 clusters
       0 = # of frozen angles
  find clusters CPU = 0.000 seconds
comm_modify vel yes

variable TK equal 298
variable TDK equal 1
variable PBAR equal 1
variable DUMP equal 100

velocity        ATOMS create ${TK} ${TK} dist gaussian
velocity        ATOMS create 298 ${TK} dist gaussian
velocity        ATOMS create 298 298 dist gaussian
velocity        DRUDES create ${TDK} ${TDK} dist gaussian
velocity        DRUDES create 1 ${TDK} dist gaussian
velocity        DRUDES create 1 1 dist gaussian

variable elec equal ecoul+elong

# Viscosity - NEMD
variable A equal 0.02e-5 # Å/fs²

# apply a shear deformation, and modify atom temperature at each timestep accordingly
fix cos all accelerate/cos ${A}
fix cos all accelerate/cos 2e-07
compute cos all viscosity/cos
compute TATOMS ATOMS temp
fix DIRECT all drude/transform/direct
fix RIG WATER rigid/nvt/small molecule temp ${TK} ${TK} 100 dilate all
fix RIG WATER rigid/nvt/small molecule temp 298 ${TK} 100 dilate all
fix RIG WATER rigid/nvt/small molecule temp 298 298 100 dilate all
  create bodies CPU = 0.000 seconds
  100 rigid bodies with 400 atoms
  0.83210114 = max distance from body owner to body atom
fix_modify RIG temp cos
fix fIL IL nvt temp ${TK} ${TK} 100
fix fIL IL nvt temp 298 ${TK} 100
fix fIL IL nvt temp 298 298 100
fix_modify fIL temp TATOMS
WARNING: Temperature for fix modify is not for group all (../fix_nh.cpp:1428)
fix NVT DRUDES nvt temp ${TDK} ${TDK} 20
fix NVT DRUDES nvt temp 1 ${TDK} 20
fix NVT DRUDES nvt temp 1 1 20
fix INVERSE all drude/transform/inverse
compute TDRUDE all temp/drude

variable density equal density
variable lz equal lz
variable vMax equal c_cos[7]
variable invVis equal v_vMax/${A}/v_density*39.4784/v_lz/v_lz*100 # reciprocal of viscosity 1/Pa/s
variable invVis equal v_vMax/2e-07/v_density*39.4784/v_lz/v_lz*100 

thermo_style custom step cpu etotal c_TDRUDE[1] c_TDRUDE[2] press pe evdwl v_elec density v_vMax v_invVis
thermo 100

timestep        1
restart         ${DUMP} IL.restart1 IL.restart2
restart         100 IL.restart1 IL.restart2
dump d1 ATOMS   custom ${DUMP} traj.lmp element xu yu zu
dump d1 ATOMS   custom 100 traj.lmp element xu yu zu
dump_modify d1 element H C N C H C H O P O O O H O H O H M D D D D D D D D D D D
dump_modify d1  sort id
run             10000000
PPPM initialization ...
WARNING: System is not charge neutral, net charge = -0.002 (../kspace.cpp:313)
  using 12-bit tables for long-range coulomb (../kspace.cpp:328)
  G vector (1/distance) = 0.27312407
  grid = 25 25 25
  stencil order = 5
  estimated absolute RMS force accuracy = 0.003572617
  estimated relative force accuracy = 1.075883e-05
  using double precision FFTW3
  3d grid and FFT values/proc = 20480 8125
Rebuild special list taking Drude particles into account
Old max number of 1-2 to 1-4 neighbors: 27
New max number of 1-2 to 1-4 neighbors: 27 (+0)
Neighbor list info ...
  update every 1 steps, delay 0 steps, check yes
  max neighbors/atom: 2000, page size: 100000
  master list distance cutoff = 14
  ghost atom cutoff = 14
  binsize = 7, bins = 4 4 4
  5 neighbor lists, perpetual/occasional/extra = 5 0 0
  (1) pair lj/cut/coul/long, perpetual, skip from (5)
      attributes: half, newton on
      pair build: skip
      stencil: none
      bin: none
  (2) pair coul/long/cs, perpetual, skip from (5)
      attributes: half, newton on
      pair build: skip
      stencil: none
      bin: none
  (3) pair thole, perpetual, skip from (5)
      attributes: half, newton on
      pair build: skip
      stencil: none
      bin: none
  (4) pair coul/tt, perpetual, skip from (5)
      attributes: half, newton on
      pair build: skip
      stencil: none
      bin: none
  (5) neighbor class addition, perpetual
      attributes: half, newton on
      pair build: half/bin/newton
      stencil: half/bin/3d/newton
      bin: standard
Per MPI rank memory allocation (min/avg/max) = 31.73 | 31.74 | 31.75 Mbytes
Step CPU TotEng c_TDRUDE[1] c_TDRUDE[2] Press PotEng E_vdwl v_elec Density v_vMax v_invVis 
       0            0    211.99731     307.1631    10.133237   -5.0297849   -396.46111   -11.798048   -1295.8587    0.6190149 2.4190752e-312 1.2342348e-304 
     100     1.501363   -1477.3722    622.55256   0.15768046    4764.6164   -2689.9298   -34.547263   -3375.1319    0.6190149 2.4190752e-312 1.2342348e-304 
     200     3.004942   -2077.8695    482.97894   0.13753382    1450.7579   -3018.5985    25.147308   -3644.8578    0.6190149 2.4190752e-312 1.2342348e-304 
     300     4.515456   -2521.3036      426.243   0.11435905   -4446.2181   -3351.5118     11.21033   -3817.3967    0.6190149 2.4190752e-312 1.2342348e-304 
     400     6.076062   -2820.4738    356.05447   0.16385907   -281.98259    -3514.094    62.238323   -3998.9037    0.6190149 2.4190752e-312 1.2342348e-304 
     500     7.623034    -3021.912    316.45459  0.089819325    -1039.602   -3638.2866    19.230504   -4028.7121    0.6190149 2.4190752e-312 1.2342348e-304 
     600     9.189804   -3163.3792     287.5113   0.22277592    -2079.768   -3723.6258    73.653227   -4185.2771    0.6190149 2.4190752e-312 1.2342348e-304 
     700    10.757526   -3236.3062    282.84539    8.6625431   -1179.6723   -3795.9163    87.745761   -4246.8626    0.6190149 2.4190752e-312 1.2342348e-304 
     800    12.343811   -3307.9392    276.08427   0.10963294    20.792878    -3845.733    80.161197   -4305.8274    0.6190149 2.4190752e-312 1.2342348e-304 
     900    13.940786   -3308.0647     279.8755     6.188632   -1379.0259   -3859.3838    126.38618    -4375.277    0.6190149 2.4190752e-312 1.2342348e-304 
    1000    15.562447   -3315.3799    298.40508   0.10023109   -385.05111   -3896.6142    96.522891   -4417.9997    0.6190149 2.4190752e-312 1.2342348e-304 
    1100    17.168388    -3308.667    305.05845    1.2761069   -956.70351   -3904.0611    102.82672   -4425.5259    0.6190149 2.4190752e-312 1.2342348e-304 
    1200    18.793999   -3324.1539    300.66148   0.11652125   -1786.4382    -3909.799    116.83974   -4440.6621    0.6190149 2.4190752e-312 1.2342348e-304 
    1300    20.452822   -3354.6317    305.13278   0.26733095   -747.13366   -3949.1372    89.771209   -4452.7654    0.6190149 2.4190752e-312 1.2342348e-304 
    1400    22.122806   -3370.6775    300.13837   0.13923204   -573.00031   -3955.3269    132.26699   -4504.3867    0.6190149 2.4190752e-312 1.2342348e-304 
    1500    23.820604   -3381.1988    300.36107   0.15515252   -867.47201   -3966.2979    135.95434   -4534.9579    0.6190149 2.4190752e-312 1.2342348e-304 
    1600    25.508176   -3388.7167     298.7409   0.69125568   -820.50869   -3971.2039    99.103186   -4504.3827    0.6190149 2.4190752e-312 1.2342348e-304 
    1700    27.207945   -3396.3339    296.51565   0.11938627   -617.91629   -3973.9081    119.68692   -4522.5062    0.6190149 2.4190752e-312 1.2342348e-304 
    1800    28.915836    -3388.603    296.94166    5.7639142   -2031.4367   -3972.7272     104.3558   -4547.3309    0.6190149 2.4190752e-312 1.2342348e-304 
    1900    30.722624   -3420.7969    301.85444   0.14263982    520.56821   -4008.7918    136.76236   -4599.0645    0.6190149 2.4190752e-312 1.2342348e-304 
    2000    32.491031   -3432.7147    294.81687   0.85281169   -364.84392   -4007.7238    132.03813   -4573.4007    0.6190149 2.4190752e-312 1.2342348e-304 
    2100    36.560249   -3456.3979    298.93879   0.18393371   -1642.1509   -4038.7802    121.80059    -4628.551    0.6190149 2.4190752e-312 1.2342348e-304 
    2200    38.391438   -3445.3561     280.1987   0.17208605   -831.24352    -3991.207    139.79757   -4607.6805    0.6190149 2.4190752e-312 1.2342348e-304 
    2300    40.168549   -3396.6119     299.7941    1.3801146    220.62812   -3981.8484    169.20207   -4639.9609    0.6190149 2.4190752e-312 1.2342348e-304 
    2400    41.942625   -3385.1793    317.52664   0.15035748   -410.12086   -4003.7029     131.2686   -4634.5278    0.6190149 2.4190752e-312 1.2342348e-304 
    2500    43.828527   -3414.9971    307.10659    3.1492965   -468.16535   -4016.2674    118.82004    -4636.218    0.6190149 2.4190752e-312 1.2342348e-304 
    2600    45.611663    -3485.071    295.28952   0.16693305   -792.52895   -4060.3054    109.26938   -4630.7823    0.6190149 2.4190752e-312 1.2342348e-304 
    2700    47.370554   -3526.4974    288.57357   0.23570826   -388.92103   -4088.7225    126.14103   -4655.7208    0.6190149 2.4190752e-312 1.2342348e-304 
    2800     49.13085   -3526.3509     278.1637    1.1826682    -123.6683   -4069.2629    182.98425   -4701.3299    0.6190149 2.4190752e-312 1.2342348e-304 
    2900    50.911151   -3493.8185    289.84801   0.13834147   -578.02247   -4058.4269    94.814217   -4619.9917    0.6190149 2.4190752e-312 1.2342348e-304 
    3000    52.704056   -3448.5069     295.6145    1.9935342   -893.49493   -4026.2255    127.08186   -4633.3563    0.6190149 2.4190752e-312 1.2342348e-304 
    3100    54.481228   -3428.6338    317.36442    0.2051422   -963.26994   -4046.8971    140.58289   -4660.6904    0.6190149 2.4190752e-312 1.2342348e-304 
    3200    56.249245   -3435.2849    305.39802    0.1841732    -332.2991   -4030.2227    93.522455   -4607.1732    0.6190149 2.4190752e-312 1.2342348e-304 
    3300    58.006386   -3473.0381    293.36908    2.7546561   -1566.5923   -4047.1552    125.82705   -4634.2067    0.6190149 2.4190752e-312 1.2342348e-304 
    3400    59.744042   -3526.3655    283.61931   0.14752502   -2711.7398    -4078.853    75.946126   -4633.7972    0.6190149 2.4190752e-312 1.2342348e-304 
    3500    61.481266   -3533.4135    294.48552   0.63375472    41.983227   -4107.5554    103.74993   -4658.5837    0.6190149 2.4190752e-312 1.2342348e-304 
    3600    63.239892   -3526.1152    289.78543   0.53878456    -769.1679   -4091.0075    179.94081   -4736.7125    0.6190149 2.4190752e-312 1.2342348e-304 
    3700    64.996106   -3492.7406    297.90692   0.15636185   -519.30004   -4073.0616    81.525293     -4636.89    0.6190149 2.4190752e-312 1.2342348e-304 
    3800    66.782154     -3446.64    316.12427    2.6612643   -509.34988   -4064.9773    140.68887   -4708.9471    0.6190149 2.4190752e-312 1.2342348e-304 
    3900    68.598793   -3464.1331    296.02806    0.2788813    -997.7389   -4040.9193    115.07974   -4648.6194    0.6190149 2.4190752e-312 1.2342348e-304 
    4000    70.408871   -3487.0251    292.05257   0.24321841   -90.126307    -4056.033    151.69824   -4698.7035    0.6190149 2.4190752e-312 1.2342348e-304 
    4100    72.175346   -3521.0156    300.61179    3.3510317   -1343.5232   -4109.8599    103.66309   -4721.9441    0.6190149 2.4190752e-312 1.2342348e-304 
    4200    73.966198   -3559.9415    283.55073   0.19481722   -1833.7244   -4112.3434    104.51225   -4680.4246    0.6190149 2.4190752e-312 1.2342348e-304 
    4300    75.943763   -3557.7669    280.53721   0.36175534    479.21431   -4104.4693    146.31176   -4749.3715    0.6190149 2.4190752e-312 1.2342348e-304 
    4400    77.799201   -3496.8962    298.36859    2.1614519   -1530.9851   -4080.1906    132.75194   -4707.5436    0.6190149 2.4190752e-312 1.2342348e-304 
    4500     79.69449   -3471.5142    307.00756   0.20571044    324.23334   -4069.6084    182.66211   -4765.9431    0.6190149 2.4190752e-312 1.2342348e-304 
    4600    81.590436   -3480.3662    305.20826   0.53521667    1113.1667   -4075.2903    157.02154   -4727.4214    0.6190149 2.4190752e-312 1.2342348e-304 
    4700    83.416817   -3516.6135     291.4798    1.3816241   -1763.8384   -4085.6598    91.274727   -4662.8848    0.6190149 2.4190752e-312 1.2342348e-304 
    4800    85.216815    -3518.758    305.00852   0.25650543   -909.73677   -4113.0107    151.32746   -4741.3642    0.6190149 2.4190752e-312 1.2342348e-304 
    4900    87.026657   -3509.6045     292.8898   0.80829759   -392.98028   -4080.8156    97.696144   -4678.3415    0.6190149 2.4190752e-312 1.2342348e-304 
    5000    88.807622   -3512.1553    295.01983    1.3868481   -618.03394   -4088.1009    151.28328    -4726.988    0.6190149 2.4190752e-312 1.2342348e-304 
    5100    90.539333   -3533.9203    287.98167   0.23256912   -1109.5245   -4094.9895    137.76282   -4687.5077    0.6190149 2.4190752e-312 1.2342348e-304 
    5200    92.268376   -3553.0002    290.73841   0.70751332    -133.1283   -4119.9193    148.79711   -4740.8333    0.6190149 2.4190752e-312 1.2342348e-304 
    5300    94.010976   -3542.9804    283.77372      1.48923   -1780.9014   -4097.1284    108.82412   -4688.0074    0.6190149 2.4190752e-312 1.2342348e-304 
    5400    95.749843   -3514.2036     299.5341   0.24613919   -1548.8296   -4097.7844    74.583328   -4664.5284    0.6190149 2.4190752e-312 1.2342348e-304 
    5500    97.473507   -3496.5784    308.67954   0.54951232   -760.46085   -4098.2772    118.89219   -4686.0452    0.6190149 2.4190752e-312 1.2342348e-304 
    5600    99.197786   -3499.2575    289.69512    1.9825877   -2068.5997   -4065.4371    120.35227   -4688.0505    0.6190149 2.4190752e-312 1.2342348e-304 
    5700    100.92515   -3511.5342    294.65126   0.28044616   -447.68911   -4085.6408    102.98774   -4665.7154    0.6190149 2.4190752e-312 1.2342348e-304 
    5800    102.65939   -3520.9789     277.3967   0.44580035   -629.31141   -4061.6504    122.87409   -4723.7957    0.6190149 2.4190752e-312 1.2342348e-304 
    5900    104.40983   -3541.0826    294.23984    2.5366709    1227.5352   -4116.6746    172.66697   -4742.4634    0.6190149 2.4190752e-312 1.2342348e-304 
    6000    106.15677   -3555.6599    286.84473   0.27233254   -2850.4853   -4114.5554    100.87679   -4684.7432    0.6190149 2.4190752e-312 1.2342348e-304 
    6100    107.83864   -3528.2874    291.10151   0.42660606   -1390.6835    -4095.629    82.228137   -4667.6022    0.6190149 2.4190752e-312 1.2342348e-304 
    6200    109.51823   -3491.6883    297.77816     2.873291   -438.24579   -4074.5121    103.73919   -4675.2524    0.6190149 2.4190752e-312 1.2342348e-304 
    6300    111.21407   -3487.6147    308.11407   0.29092336   -642.45435   -4087.9502    143.70461   -4732.4894    0.6190149 2.4190752e-312 1.2342348e-304 
    6400    112.94862   -3486.1355    305.43578   0.33656066   -1008.2128   -4081.3013    120.26089   -4711.4916    0.6190149 2.4190752e-312 1.2342348e-304 
    6500    114.69414    -3499.937    308.27084    2.7349052   -1102.4313   -4103.0548     138.5541   -4707.2319    0.6190149 2.4190752e-312 1.2342348e-304 
    6600    116.45963   -3551.4919    297.08014   0.37655479   -977.62795    -4130.426    113.92349   -4725.7139    0.6190149 2.4190752e-312 1.2342348e-304 
    6700    118.22483   -3574.8055    283.81489   0.31778018   -292.11328   -4127.8462    154.95576   -4776.0108    0.6190149 2.4190752e-312 1.2342348e-304 
    6800    120.01278   -3550.4875    292.17195    2.4110318   -796.25251   -4121.9631     160.8831   -4775.1265    0.6190149 2.4190752e-312 1.2342348e-304 
    6900     121.8136   -3529.9515    302.20933   0.52331286   -499.63544   -4119.0231    145.08299   -4749.4851    0.6190149 2.4190752e-312 1.2342348e-304 
    7000    123.62287   -3530.0068    291.29025   0.27551604    682.53293   -4097.5628    150.11992    -4762.141    0.6190149 2.4190752e-312 1.2342348e-304 
    7100    125.37743   -3517.9877    304.89161    1.6538681   -1681.7111   -4113.4288    119.61952   -4723.7238    0.6190149 2.4190752e-312 1.2342348e-304 
    7200    127.12579   -3532.1637    295.15964   0.81785305   -824.69416   -4107.8653    98.118129   -4713.2526    0.6190149 2.4190752e-312 1.2342348e-304 
    7300    128.86302   -3553.3999    296.78265   0.24273704   -1515.0134   -4131.6191    120.36175    -4741.432    0.6190149 2.4190752e-312 1.2342348e-304 
    7400    130.61075   -3558.4224    290.46113    1.1228976   -936.79792   -4125.2226    144.55305   -4761.1355    0.6190149 2.4190752e-312 1.2342348e-304 
    7500     132.3543   -3540.4323    300.82095    1.3914459    28.085723   -4127.6801    104.09033    -4728.173    0.6190149 2.4190752e-312 1.2342348e-304 
    7600    134.15123   -3538.9568    303.62544   0.26239055   -1406.7593   -4130.5219    123.19362   -4720.2972    0.6190149 2.4190752e-312 1.2342348e-304 
    7700    135.92493   -3534.0963    297.79142   0.67945232   -1403.7437   -4114.7226    110.09276   -4731.7112    0.6190149 2.4190752e-312 1.2342348e-304 
    7800     137.7165   -3524.5917    296.95754    2.0066394    49.125235    -4104.939    148.44902   -4792.0367    0.6190149 2.4190752e-312 1.2342348e-304 
    7900    139.48356   -3531.1492    298.54482   0.33555405   -256.58335    -4112.914    135.48642   -4745.1691    0.6190149 2.4190752e-312 1.2342348e-304 
    8000    141.25286   -3545.4008    309.20876   0.45671051   -180.06332   -4148.0362    112.01534   -4752.6702    0.6190149 2.4190752e-312 1.2342348e-304 
    8100    143.02891   -3536.3112     304.3872    2.7672438   -1452.6753   -4131.8984     99.96939   -4758.5254    0.6190149 2.4190752e-312 1.2342348e-304 
    8200    144.81065   -3555.5764    296.73241   0.34494832   -577.68411   -4133.8013    129.95103   -4745.4906    0.6190149 2.4190752e-312 1.2342348e-304 
    8300    146.59225   -3572.2794    295.17791    0.3622919   -918.15948   -4147.4945    116.30868   -4766.6751    0.6190149 2.4190752e-312 1.2342348e-304 
    8400    148.45094   -3546.5044    290.80259    2.7443663   -1276.7449   -4115.6128    119.21571   -4720.4623    0.6190149 2.4190752e-312 1.2342348e-304 
    8500    150.25073   -3507.0689    318.34648   0.50022451      389.375   -4127.5437    121.65637   -4750.1937    0.6190149 2.4190752e-312 1.2342348e-304 
    8600    152.09462   -3514.3599    307.50104   0.29239218   -1925.0903    -4113.503     121.1714   -4739.7696    0.6190149 2.4190752e-312 1.2342348e-304 
    8700    153.98747    -3542.906    290.05983    1.7505213   -1279.3699   -4109.5651    73.434153   -4677.1952    0.6190149 2.4190752e-312 1.2342348e-304 
    8800    155.85542   -3547.4523    284.50873   0.93914831   -2422.1628   -4102.4742     64.90325   -4659.9452    0.6190149 2.4190752e-312 1.2342348e-304 
    8900    157.67657   -3526.6102    298.92676   0.29879871   -1166.7367   -4109.0617    109.74412   -4726.0067    0.6190149 2.4190752e-312 1.2342348e-304 
    9000    159.49638   -3502.9433    291.22342   0.99183039   -1118.5125   -4071.0961    116.78323   -4724.2659    0.6190149 2.4190752e-312 1.2342348e-304 
    9100    161.31089   -3495.2006    304.33226      1.71381    -1347.849   -4089.6132      70.6698   -4664.3709    0.6190149 2.4190752e-312 1.2342348e-304 
    9200    163.16771   -3496.6894    306.63577   0.34145059   -324.65654   -4094.1971    171.85159   -4784.9193    0.6190149 2.4190752e-312 1.2342348e-304 
    9300    165.09455   -3531.2595     298.6274   0.56921636   -1519.4823    -4113.434    111.85893   -4754.0674    0.6190149 2.4190752e-312 1.2342348e-304 
    9400    167.05074   -3552.4622    292.96344    2.4441392    -779.1046   -4125.4746    117.27169   -4727.4502    0.6190149 2.4190752e-312 1.2342348e-304 
    9500    169.04987   -3556.1883    293.74472   0.40406282   -1601.3666   -4128.6546     116.7567   -4767.0123    0.6190149 2.4190752e-312 1.2342348e-304 
    9600    170.98369   -3541.4589    295.01297    0.3519843    71.719973   -4116.3423     152.1374   -4783.4325    0.6190149 2.4190752e-312 1.2342348e-304 
    9700    172.81971   -3520.4896    298.55098    2.3365407   -1543.6931   -4104.2745    102.01372   -4710.6045    0.6190149 2.4190752e-312 1.2342348e-304 
    9800    174.64059   -3506.0685    315.26872   0.68573938   -851.93518   -4120.7375    135.53369   -4787.0444    0.6190149 2.4190752e-312 1.2342348e-304 
    9900    176.43843     -3539.09     321.1646    0.3365999   -316.70507   -4164.8872    112.60647   -4768.8006    0.6190149 2.4190752e-312 1.2342348e-304 
   10000    178.22249   -3561.4021    286.88589    1.2758855   -1386.2435   -4121.3947     157.4989    -4781.111    0.6190149 2.4190752e-312 1.2342348e-304 
   10100    179.96078   -3560.2563     297.1448    1.2826519   -641.06107   -4140.2346    124.02842   -4786.9883    0.6190149 2.4190752e-312 1.2342348e-304 
   10200    181.70938   -3575.6032    304.22957   0.29057229   -859.76755   -4168.3733    103.74735   -4766.1758    0.6190149 2.4190752e-312 1.2342348e-304 
   10300    183.49105   -3618.9211    283.40981   0.64673927   -1842.2424   -4171.5066    124.53405   -4805.7611    0.6190149 2.4190752e-312 1.2342348e-304 
   10400    185.28054   -3651.5886    278.09834    2.3214126   -320.66491   -4195.5274    133.43457   -4809.6584    0.6190149 2.4190752e-312 1.2342348e-304 
   10500    187.23575   -3635.0063    283.92453   0.43409647   -1369.1355   -4188.3786    106.37637   -4785.0754    0.6190149 2.4190752e-312 1.2342348e-304 
   10600    189.04208   -3594.8763    311.47148   0.41468373   -203.06668   -4201.8757    166.62888   -4845.9871    0.6190149 2.4190752e-312 1.2342348e-304 
   10700    190.84589   -3562.7014    301.09544    2.2017124   -220.95575   -4151.3049    140.47145   -4819.9913    0.6190149 2.4190752e-312 1.2342348e-304 
   10800    192.66907   -3554.5511    308.41193    0.9088416   -1314.4001   -4156.1404    102.22722   -4746.4027    0.6190149 2.4190752e-312 1.2342348e-304 
   10900    194.50242   -3566.0187     306.3151   0.35193679   -2217.2621   -4162.9126    131.51651   -4797.7729    0.6190149 2.4190752e-312 1.2342348e-304 
   11000    196.30179   -3605.4067    282.21246    1.0095512   -364.31513   -4156.0293    108.64073   -4779.8158    0.6190149 2.4190752e-312 1.2342348e-304 
   11100    198.15887   -3614.5262     287.8268      1.82956   -702.29612   -4176.9124    113.07482     -4804.71    0.6190149 2.4190752e-312 1.2342348e-304 
   11200    199.96639   -3593.8468    298.15151   0.40204514   -1324.8419   -4174.8932    149.86461   -4843.1065    0.6190149 2.4190752e-312 1.2342348e-304 
   11300    201.90336   -3588.6666    306.48008   0.51122593    386.78404   -4186.0434    153.93813   -4852.7048    0.6190149 2.4190752e-312 1.2342348e-304 
   11400    203.80178    -3598.401    284.42649    2.0497503   -684.68616   -4154.3883    137.38753   -4830.3325    0.6190149 2.4190752e-312 1.2342348e-304 
   11500    205.67079   -3608.1581    293.11663   0.64910709   -1880.9993   -4179.6496    96.741082   -4774.9297    0.6190149 2.4190752e-312 1.2342348e-304 
   11600    207.53423    -3584.209    283.55986   0.37721472   -778.21502   -4136.8135    146.03419   -4825.2598    0.6190149 2.4190752e-312 1.2342348e-304 
   11700    209.54209    -3559.699    306.68705    1.3882542    831.07471   -4158.3675    177.23141   -4857.0028    0.6190149 2.4190752e-312 1.2342348e-304 
   11800    211.40354   -3577.5843    287.11834    1.2295349    348.94225   -4137.9826    181.67122   -4843.7539    0.6190149 2.4190752e-312 1.2342348e-304 
   11900    213.24616   -3610.2962    295.51415    0.4138521   -1383.4716   -4186.2889     116.0809    -4795.514    0.6190149 2.4190752e-312 1.2342348e-304 
   12000    215.10128   -3614.1627    304.63606    0.6284455   -198.74576   -4208.0669    121.86259   -4827.8862    0.6190149 2.4190752e-312 1.2342348e-304 
   12100    216.92046   -3621.8901    293.58453    2.2251988   -1505.5753   -4195.8901    104.80283   -4785.7007    0.6190149 2.4190752e-312 1.2342348e-304 
   12200    218.76056    -3635.644    271.41983   0.59400106   -1021.7498    -4164.826    72.833463   -4752.8828    0.6190149 2.4190752e-312 1.2342348e-304 
   12300    220.65777   -3592.6896    289.70137   0.39487339   -2190.4118   -4157.2724    113.84209   -4794.9506    0.6190149 2.4190752e-312 1.2342348e-304 
   12400     222.5628   -3555.3458    304.12636    1.5108331   -288.47069   -4149.1515    184.14174   -4857.5995    0.6190149 2.4190752e-312 1.2342348e-304 
   12500    224.45931   -3569.2016    304.20208     1.235352    15.507595   -4162.8757    151.90275   -4831.4673    0.6190149 2.4190752e-312 1.2342348e-304 
   12600    226.34884   -3614.7871    289.95476    0.3650027   -973.61382    -4179.833    124.55101   -4796.7939    0.6190149 2.4190752e-312 1.2342348e-304 
   12700    228.21256   -3625.4619    285.96839   0.69609027   -1263.1914   -4183.0801    116.48559   -4816.2452    0.6190149 2.4190752e-312 1.2342348e-304 
   12800    230.09902   -3581.9087    299.98184    2.1873093   -1509.6064   -4168.3289    127.41146   -4810.3325    0.6190149 2.4190752e-312 1.2342348e-304 
   12900    231.99118    -3576.445    304.02406   0.53535814   -707.27677   -4169.0631    153.30752   -4849.9103    0.6190149 2.4190752e-312 1.2342348e-304 
   13000    233.89015   -3588.8753    299.59104   0.44173127   -1844.5474   -4172.7656     104.6445   -4770.3446    0.6190149 2.4190752e-312 1.2342348e-304 
   13100    235.77191     -3587.21    294.74224     1.507867   -763.80261   -4162.7376    121.80086   -4789.6342    0.6190149 2.4190752e-312 1.2342348e-304 
   13200    237.63379   -3578.9324    303.36795    1.1128108    355.02666    -4170.858    158.74066   -4808.5026    0.6190149 2.4190752e-312 1.2342348e-304 
   13300    239.58203   -3621.0672    283.62725   0.40623477    1354.4601   -4173.8323    168.11304   -4833.9893    0.6190149 2.4190752e-312 1.2342348e-304 
   13400    241.48511   -3649.4278    282.11999   0.82797599   -1388.6321   -4199.6851    82.986856   -4748.2466    0.6190149 2.4190752e-312 1.2342348e-304 
   13500    243.32046   -3609.2971    289.74494    2.1429155   -620.06196   -4175.8129    140.91544    -4817.686    0.6190149 2.4190752e-312 1.2342348e-304 
   13600    245.14464   -3583.0046     301.2655   0.60423289   -1250.3638    -4170.366    102.01581   -4801.6273    0.6190149 2.4190752e-312 1.2342348e-304 
   13700    246.98811   -3582.3887    295.37398   0.52106853   -925.39394   -4158.1466     124.1782   -4793.4548    0.6190149 2.4190752e-312 1.2342348e-304 
   13800     248.8669   -3598.1808    284.79782    1.4525817   -183.18468    -4154.299    118.44408   -4770.6468    0.6190149 2.4190752e-312 1.2342348e-304 
   13900    250.74423   -3611.1469    279.31323    1.1660108   -1867.0817   -4156.3874    102.01561   -4752.9852    0.6190149 2.4190752e-312 1.2342348e-304 
   14000    252.58417   -3571.2583    307.41177   0.50201493   -1484.1322    -4170.467    87.713883   -4750.2231    0.6190149 2.4190752e-312 1.2342348e-304 
   14100    254.41498   -3545.5771    310.66875   0.69160039    82.462653   -4151.2938    148.92915   -4817.4656    0.6190149 2.4190752e-312 1.2342348e-304 
   14200    256.27046   -3565.6494    289.09262    1.8690978   -690.24108   -4130.5408    130.80452   -4779.1053    0.6190149 2.4190752e-312 1.2342348e-304 
   14300    258.13415   -3583.1449     295.3683   0.82568172   -1082.8877   -4159.2476     99.99949   -4759.2276    0.6190149 2.4190752e-312 1.2342348e-304 
   14400    259.98183   -3556.8536    312.39678    0.5248309   -722.42682   -4165.7665    109.68523   -4751.3833    0.6190149 2.4190752e-312 1.2342348e-304 
   14500     261.8469   -3547.3523    306.65327    1.1206429   -1114.5679   -4145.6838    107.75985   -4752.8779    0.6190149 2.4190752e-312 1.2342348e-304 
   14600    263.77527   -3598.5457     301.0813    1.6156647    140.28486   -4186.5277    129.60053   -4793.3163    0.6190149 2.4190752e-312 1.2342348e-304 
   14700    265.62741   -3636.8326    287.67305   0.58312346   -821.50256   -4197.6561    157.27606   -4827.9867    0.6190149 2.4190752e-312 1.2342348e-304 
   14800    267.49792    -3612.996    293.72944   0.59170593   -617.76466    -4185.622    99.149906   -4780.5401    0.6190149 2.4190752e-312 1.2342348e-304 
   14900     269.3666   -3577.2704    292.89692     1.558914   -235.09789   -4149.2561    96.766007   -4766.6353    0.6190149 2.4190752e-312 1.2342348e-304 
   15000    271.24231   -3559.5066    299.49144   0.99127473   -2128.1753   -4143.7596    103.20568   -4745.1525    0.6190149 2.4190752e-312 1.2342348e-304 
   15100    273.07534   -3559.9533    296.98618   0.54614585   -10.703131   -4138.8763    96.920629   -4786.8116    0.6190149 2.4190752e-312 1.2342348e-304 
   15200    274.91806   -3575.1409    299.89374   0.83563209   -839.84896   -4160.0196    75.860964   -4725.7167    0.6190149 2.4190752e-312 1.2342348e-304 
   15300    276.76812   -3606.2866    291.42543    1.8001339   -2002.7726   -4175.6511    131.93113   -4820.5028    0.6190149 2.4190752e-312 1.2342348e-304 
   15400    278.68126   -3636.7578    294.26694   0.73477643   -459.03789   -4210.5763    103.30112   -4803.4509    0.6190149 2.4190752e-312 1.2342348e-304 
   15500     280.5746   -3634.3638    276.56494   0.56345455   -883.84587   -4173.5347    108.22564   -4781.9271    0.6190149 2.4190752e-312 1.2342348e-304 
   15600     282.4768   -3601.4342    302.26086    1.0762734    281.68728   -4191.1667    128.81003   -4799.7964    0.6190149 2.4190752e-312 1.2342348e-304 
   15700    284.44084   -3579.8895    301.88596    1.4878242   -1282.0871   -4169.3559     98.04619   -4759.9132    0.6190149 2.4190752e-312 1.2342348e-304 
   15800    286.30198   -3569.7744    292.73712   0.56482439   -964.26632   -4140.4414    127.28492   -4796.9058    0.6190149 2.4190752e-312 1.2342348e-304 
   15900    288.40348   -3565.0916    292.21209   0.68166604   -1455.9404   -4134.8546     84.59138   -4738.1046    0.6190149 2.4190752e-312 1.2342348e-304 
   16000    290.28682   -3572.2483    312.48067    1.6146698   -1097.6807   -4182.4291    110.94046   -4783.7084    0.6190149 2.4190752e-312 1.2342348e-304 
   16100    292.18006   -3615.5109    287.31673    1.1414136    222.71607   -4176.2063    129.11977    -4799.773    0.6190149 2.4190752e-312 1.2342348e-304 
   16200    294.06585   -3615.6928    281.59999   0.57053622   -800.59583   -4164.6764    154.35805   -4835.9069    0.6190149 2.4190752e-312 1.2342348e-304 
   16300    295.92454   -3605.5445    289.93436   0.93633616   -1011.4511   -4171.1298    128.17001   -4801.2984    0.6190149 2.4190752e-312 1.2342348e-304 
   16400    297.79268   -3609.8401    294.83095    1.7352472   -777.55215    -4185.771    104.35653   -4802.3508    0.6190149 2.4190752e-312 1.2342348e-304 
   16500    299.69749     -3602.99    301.01362   0.77200792   -1098.2724   -4189.9851    121.07198   -4804.5827    0.6190149 2.4190752e-312 1.2342348e-304 
   16600    301.56848   -3594.6999    301.07345   0.55640692   -910.61608    -4181.593    112.18094   -4795.3923    0.6190149 2.4190752e-312 1.2342348e-304 
   16700    303.45108   -3595.9634    301.99929    1.2301308    -1205.037   -4185.3424     99.95795   -4788.0304    0.6190149 2.4190752e-312 1.2342348e-304 
   16800    305.33258   -3550.5313    315.44189    1.5356276   -1023.8639   -4166.4202    135.72338   -4821.0499    0.6190149 2.4190752e-312 1.2342348e-304 
   16900    307.17101   -3558.9277    295.58597   0.64970707     434.1607   -4135.2288    109.45245   -4779.8123    0.6190149 2.4190752e-312 1.2342348e-304 
   17000    309.01345   -3572.9988    300.96413   0.75890976   -1143.7935   -4159.8892    120.76675   -4799.7684    0.6190149 2.4190752e-312 1.2342348e-304 
   17100    310.82078    -3581.135    304.21261    1.3759954   -855.97074   -4174.9722    88.962556    -4755.899    0.6190149 2.4190752e-312 1.2342348e-304 
   17200    312.63365   -3595.4748    299.76154    1.2505918   -1982.1279   -4180.5166    120.99644   -4815.6647    0.6190149 2.4190752e-312 1.2342348e-304 
   17300    314.47428    -3594.251    296.56887   0.63905019   -982.34956   -4172.4553    91.891986   -4763.7589    0.6190149 2.4190752e-312 1.2342348e-304 
   17400    316.33613   -3629.2476    289.83791   0.81461409    509.04437   -4194.5217    134.80273   -4815.7352    0.6190149 2.4190752e-312 1.2342348e-304 
   17500    318.15564   -3679.3728    292.76104    1.4587873   -1093.5834   -4251.0119     148.9665   -4872.9778    0.6190149 2.4190752e-312 1.2342348e-304 
   17600    319.97272   -3653.2842    289.82372   0.98796699   -2300.3208   -4218.7063    84.686419   -4779.3614    0.6190149 2.4190752e-312 1.2342348e-304 
   17700    321.82518   -3607.6778    307.29991   0.63794384    247.10141   -4206.7794    172.74645   -4855.9851    0.6190149 2.4190752e-312 1.2342348e-304 
   17800    323.67078   -3594.5642    296.12291   0.95794626   -1003.9058   -4172.2275    150.81067   -4800.5912    0.6190149 2.4190752e-312 1.2342348e-304 
   17900    325.48093   -3583.1061    293.92263    1.4779679   -1230.2664   -4157.0073    126.19487   -4775.3446    0.6190149 2.4190752e-312 1.2342348e-304 
   18000    327.31726   -3563.1071    296.78501   0.90837232   -340.01626   -4142.0343    181.29452   -4836.8219    0.6190149 2.4190752e-312 1.2342348e-304 
   18100    329.11253   -3560.7264      299.156   0.66051995    268.96721   -4143.9909    148.80059   -4793.7601    0.6190149 2.4190752e-312 1.2342348e-304 
   18200    330.89194   -3613.9473    291.22905    1.0730296   -768.03386   -4182.1925    164.11383   -4861.6765    0.6190149 2.4190752e-312 1.2342348e-304 
   18300    332.67393   -3635.3067    279.59985    1.4478781   -437.86354   -4181.2843    156.21493   -4843.0941    0.6190149 2.4190752e-312 1.2342348e-304 
   18400    334.45252   -3605.9594    285.93489   0.86793607   -673.84535   -4163.6865    143.76667   -4829.9397    0.6190149 2.4190752e-312 1.2342348e-304 
   18500    336.22619   -3577.6977    305.04503   0.71822235   -1186.9579   -4172.5066    123.00924    -4812.205    0.6190149 2.4190752e-312 1.2342348e-304 
   18600    338.00083   -3571.8246    309.37271    1.1397692   -208.49311   -4175.4677    162.33351   -4847.2155    0.6190149 2.4190752e-312 1.2342348e-304 
   18700    339.77462   -3601.3053    297.06454    1.3442863   -339.37535   -4181.1897    164.70023   -4852.3536    0.6190149 2.4190752e-312 1.2342348e-304 
   18800    341.56807   -3614.2782     289.2001   0.84395926   -2331.4025   -4178.3579    89.592406   -4759.6282    0.6190149 2.4190752e-312 1.2342348e-304 
   18900    343.35682   -3584.1964    296.30605   0.84323615    -738.7205   -4162.1446    136.62195   -4788.3613    0.6190149 2.4190752e-312 1.2342348e-304 
   19000    345.18409   -3590.5888    293.29641    1.2293763   -664.59081   -4163.0235    150.05152   -4790.1674    0.6190149 2.4190752e-312 1.2342348e-304 
   19100    346.95247   -3582.6773    302.89081     1.220292    -372.4765   -4173.7825    123.28568   -4788.2416    0.6190149 2.4190752e-312 1.2342348e-304 
   19200     348.7382   -3581.2113    309.89737   0.73581676   -83.498502   -4185.4765    183.77857   -4853.1562    0.6190149 2.4190752e-312 1.2342348e-304 
   19300    350.54111   -3577.4836     302.1031    0.9153969    -840.3671   -4166.7458    119.27205   -4819.2035    0.6190149 2.4190752e-312 1.2342348e-304 
   19400    352.29256   -3594.6573    294.27317    1.3441047   -1264.2515   -4169.1055    104.04541     -4755.05    0.6190149 2.4190752e-312 1.2342348e-304 
   19500    354.06752    -3619.588    288.95999     1.080058   -1960.7707   -4183.4214    93.417374   -4764.8223    0.6190149 2.4190752e-312 1.2342348e-304 
   19600    355.83383   -3610.3403    295.02242   0.71956738   -832.81456   -4185.6177    155.16639   -4835.1791    0.6190149 2.4190752e-312 1.2342348e-304 
   19700    357.64722   -3594.4888    301.56341   0.82209121    667.28006   -4182.6055     154.2692   -4871.2589    0.6190149 2.4190752e-312 1.2342348e-304 
   19800    359.46766   -3581.5513    313.63906    1.3672781   -316.15209   -4193.7373     177.5809   -4874.2516    0.6190149 2.4190752e-312 1.2342348e-304 
   19900    361.23337   -3604.9661    296.58611    1.0490474   -1244.2326   -4183.6196    121.06753   -4833.6554    0.6190149 2.4190752e-312 1.2342348e-304 
   20000    363.04635   -3618.5243     298.3284   0.71280192    73.584983   -4200.2301    126.11189   -4823.7234    0.6190149 2.4190752e-312 1.2342348e-304 
   20100    364.81455   -3616.3351    296.56662   0.93970815   -1174.2001   -4194.8824    134.60819   -4842.7901    0.6190149 2.4190752e-312 1.2342348e-304 
   20200    366.57588   -3600.2653    295.87063     1.365359   -651.48697    -4177.846    149.31662   -4829.7862    0.6190149 2.4190752e-312 1.2342348e-304 
   20300    368.40118   -3581.8538    316.91924   0.99333092   -197.07704   -4200.0489    177.45798   -4893.4452    0.6190149 2.4190752e-312 1.2342348e-304 
   20400    370.21178   -3596.9528    304.97951   0.74863657   -461.80535   -4191.6879    144.90723     -4839.73    0.6190149 2.4190752e-312 1.2342348e-304 
   20500    372.03161   -3627.2067    278.76045     1.051323    156.03171    -4171.154    121.41195      -4804.2    0.6190149 2.4190752e-312 1.2342348e-304 
   20600    373.84972   -3609.0706    294.71197    1.3774857   -1132.7902   -4184.4072     130.7464   -4823.4192    0.6190149 2.4190752e-312 1.2342348e-304 
   20700    375.66032   -3584.3351    284.74156   0.86760417   -969.91547    -4139.738    123.91281   -4785.5062    0.6190149 2.4190752e-312 1.2342348e-304 
   20800    377.47117   -3580.5387    299.23406   0.79661569   -1595.4617    -4164.111    127.29388     -4783.22    0.6190149 2.4190752e-312 1.2342348e-304 
   20900    379.31197    -3594.671    287.93087    1.0699134    591.63226   -4156.4898    171.89853   -4831.9848    0.6190149 2.4190752e-312 1.2342348e-304 
   21000    381.11708   -3587.8938    296.41585    1.3328825   -402.40689   -4166.5036    151.92137   -4837.1864    0.6190149 2.4190752e-312 1.2342348e-304 
   21100    382.86695   -3592.4937    297.36818   0.87451677    -2142.258   -4172.5293    132.56318   -4787.7439    0.6190149 2.4190752e-312 1.2342348e-304 
   21200    384.60775   -3619.7596    296.89344   0.73253184    168.21831   -4198.7276    146.78059    -4826.541    0.6190149 2.4190752e-312 1.2342348e-304 
   21300    386.34393   -3616.8097    287.19695    1.2674042   -791.92002   -4177.3995    133.09727   -4780.2614    0.6190149 2.4190752e-312 1.2342348e-304 
   21400    388.11248   -3588.4068    308.39374     1.188558   -1057.2339   -4190.1966    154.23437   -4813.7527    0.6190149 2.4190752e-312 1.2342348e-304 
   21500    389.91469    -3598.987    291.94182   0.77560546    176.32729   -4168.3188    157.85674   -4832.1134    0.6190149 2.4190752e-312 1.2342348e-304 
   21600    391.77741   -3619.7407    294.67767   0.79319342   -1074.9392   -4194.4183    155.94167   -4845.9697    0.6190149 2.4190752e-312 1.2342348e-304 
   21700    393.63061    -3591.582    309.46911    1.2579314     19.44866   -4195.5364    139.01989   -4837.9126    0.6190149 2.4190752e-312 1.2342348e-304 
   21800    395.45234   -3577.6902    301.73788    1.1738625   -1125.3112   -4166.5031    168.66864   -4833.9717    0.6190149 2.4190752e-312 1.2342348e-304 
   21900     397.2691   -3587.3222    299.44075   0.75559106    461.54796   -4171.2377    171.69124   -4849.8969    0.6190149 2.4190752e-312 1.2342348e-304 
   22000      399.098   -3603.4276     292.3076   0.85980312   -843.34643   -4173.5571     151.4498   -4827.2033    0.6190149 2.4190752e-312 1.2342348e-304 
   22100    400.86345   -3600.7912    291.62336    1.2890524   -1677.1906   -4170.0232    132.98612   -4810.0007    0.6190149 2.4190752e-312 1.2342348e-304 
   22200    402.64635   -3619.7874    303.35528    1.1245168   -916.94411   -4211.7001    133.88447   -4801.0964    0.6190149 2.4190752e-312 1.2342348e-304 
   22300    404.42993   -3638.2067    274.00806   0.67190953   -1956.0067   -4172.5081    111.19437   -4756.7891    0.6190149 2.4190752e-312 1.2342348e-304 
   22400    406.19482   -3627.1253    285.44715   0.94840238   -297.39427   -4183.9841    155.77499   -4832.3175    0.6190149 2.4190752e-312 1.2342348e-304 
   22500    408.00225   -3610.9297    287.27935    1.2718106   -1209.7868   -4171.6844    141.05827   -4812.9033    0.6190149 2.4190752e-312 1.2342348e-304 
   22600    409.79006   -3583.1346    304.38617    1.0771304    349.26898   -4177.0361    176.18247   -4877.4047    0.6190149 2.4190752e-312 1.2342348e-304 
   22700    411.57586   -3586.8172    307.63831   0.73633357   -446.61642   -4186.6776    175.30412   -4863.2991    0.6190149 2.4190752e-312 1.2342348e-304 
   22800    413.36303   -3625.2389    285.40887    0.9680726   -2564.1929   -4182.0431    103.31855   -4778.6969    0.6190149 2.4190752e-312 1.2342348e-304 
   22900    415.16498   -3647.5927    279.12971    1.3463832    1201.0303   -4192.5519    163.53971   -4837.8222    0.6190149 2.4190752e-312 1.2342348e-304 
   23000    416.98996   -3641.6355    289.16261   0.93457069   -1145.4123   -4205.7283    135.99212   -4846.3952    0.6190149 2.4190752e-312 1.2342348e-304 
   23100    418.74913    -3610.805    290.72407   0.73475527   -686.56541   -4177.7519    163.02333    -4863.394    0.6190149 2.4190752e-312 1.2342348e-304 
   23200    420.54489   -3589.6374    301.12175    1.0261797   -1492.8183   -4177.1007    123.31896   -4822.7254    0.6190149 2.4190752e-312 1.2342348e-304 
   23300     422.3646   -3570.8648    313.42741    1.2618104   -948.15319   -4182.5318    129.89202   -4800.2626    0.6190149 2.4190752e-312 1.2342348e-304 
   23400    424.25939   -3595.7662    300.29951   0.91731992   -499.56287   -4181.5271    109.89363   -4780.2755    0.6190149 2.4190752e-312 1.2342348e-304 
   23500    426.06212   -3633.9178    289.10945   0.79230435   -449.96521   -4197.7705    133.81038   -4824.2134    0.6190149 2.4190752e-312 1.2342348e-304 
   23600    427.86325   -3654.0703    285.42517   0.99449353   -402.26774    -4210.933    125.28241   -4814.7388    0.6190149 2.4190752e-312 1.2342348e-304 
   23700    429.65355    -3619.869    290.50954    1.1538973   -1057.6083   -4186.7949    146.81432   -4834.9802    0.6190149 2.4190752e-312 1.2342348e-304 
   23800    431.62098   -3584.5852    298.51299   0.92058108   -787.21192   -4166.8611    141.21447   -4814.8905    0.6190149 2.4190752e-312 1.2342348e-304 
   23900    434.38131    -3572.824    283.21003   0.81718312    125.57154   -4125.1931    118.52512   -4762.7464    0.6190149 2.4190752e-312 1.2342348e-304 
   24000    437.41459   -3583.3726    298.71354    1.1907244   -777.27694   -4166.3513     126.6677   -4819.5068    0.6190149 2.4190752e-312 1.2342348e-304 
   24100    439.99593   -3621.4767    288.63352    1.1813607   -1195.8748   -4184.7769      122.733   -4781.7475    0.6190149 2.4190752e-312 1.2342348e-304 
   24200    442.11937   -3649.3433    296.89284   0.83732574   -1753.2506   -4228.3797    117.27227   -4837.3576    0.6190149 2.4190752e-312 1.2342348e-304 
   24300    444.03053    -3623.078    296.62341   0.88680594   -635.07222   -4201.7108    149.10888   -4850.1702    0.6190149 2.4190752e-312 1.2342348e-304 
   24400    446.02902    -3599.534    299.55133    1.1635513   -148.12062   -4184.0782    135.01704     -4829.72    0.6190149 2.4190752e-312 1.2342348e-304 
   24500     447.9478   -3599.1915    300.46422    1.1416883    402.62263     -4185.55    144.36049   -4811.6829    0.6190149 2.4190752e-312 1.2342348e-304 
   24600      449.862   -3594.4653    291.08739   0.92042158    780.77356   -4162.2801     143.1713   -4805.7961    0.6190149 2.4190752e-312 1.2342348e-304 
   24700    451.80247   -3588.1434    303.08028   0.86386974    -265.2296   -4179.2565    135.20712   -4797.1083    0.6190149 2.4190752e-312 1.2342348e-304 
   24800    453.72447   -3603.8627    291.79396      1.19166   -1202.9471   -4173.3282    107.92729   -4752.6248    0.6190149 2.4190752e-312 1.2342348e-304 
   24900    455.66607   -3612.8914    293.43199    1.0096863   -1438.5678   -4185.3625    99.553648   -4757.2869    0.6190149 2.4190752e-312 1.2342348e-304 
   25000    457.62463   -3604.9678    293.11437   0.86305462    41.276899   -4176.6767    114.36162   -4754.3916    0.6190149 2.4190752e-312 1.2342348e-304 
   25100    459.49223    -3620.604    293.09385   0.91793557   -1740.5179   -4192.3236    119.62467   -4831.2766    0.6190149 2.4190752e-312 1.2342348e-304 
   25200    461.34256   -3623.3355     296.3002    1.1127227   -1020.2596   -4201.4968    113.27331    -4805.586    0.6190149 2.4190752e-312 1.2342348e-304 
   25300    463.30289   -3595.2522    299.92094   0.96057931   -2269.8817   -4180.3106    140.73792   -4808.9798    0.6190149 2.4190752e-312 1.2342348e-304 
   25400    465.27884   -3568.7484    308.92222   0.86361449     144.6857   -4171.2381     120.5912   -4818.3954    0.6190149 2.4190752e-312 1.2342348e-304 
   25500    467.22434    -3608.686    303.84889    1.0288002   -418.29146    -4201.463    163.97162   -4871.3832    0.6190149 2.4190752e-312 1.2342348e-304 
   25600    469.14934   -3634.4978    289.01106      1.23818   -2653.7423   -4198.5909    123.54469    -4837.704    0.6190149 2.4190752e-312 1.2342348e-304 
   25700    471.50507   -3627.4687    283.57757     0.955321    480.32425   -4180.6936    148.31094    -4829.582    0.6190149 2.4190752e-312 1.2342348e-304 
   25800    473.68813   -3594.5847    310.69926   0.81143205   -476.18405   -4200.4822    142.84933   -4844.5839    0.6190149 2.4190752e-312 1.2342348e-304 
   25900    475.78244   -3557.9264    306.20658    0.9864174   -824.46527   -4155.2519    130.45005   -4809.4564    0.6190149 2.4190752e-312 1.2342348e-304 
   26000    477.74947   -3573.3326    309.17304    1.2106551    45.239652   -4176.6624    131.77737   -4813.1065    0.6190149 2.4190752e-312 1.2342348e-304 
   26100    479.61878   -3626.6415    285.17829   0.87707381   -1752.1139   -4182.9045    129.59434   -4802.4833    0.6190149 2.4190752e-312 1.2342348e-304 
   26200    481.48284   -3617.0477    296.17093   0.80682587   -324.47144    -4194.667    144.49995   -4831.7068    0.6190149 2.4190752e-312 1.2342348e-304 
   26300    483.36289   -3599.9095    285.59397    1.0323999   -352.56245   -4157.1676     141.1949   -4798.4006    0.6190149 2.4190752e-312 1.2342348e-304 
   26400    485.30615   -3583.8391    293.98848    1.2467254   -1254.4186   -4157.6672    148.03532    -4806.689    0.6190149 2.4190752e-312 1.2342348e-304 
   26500    487.30025   -3572.5412     303.1016   0.89623588   -412.48239   -4163.7579    115.49167    -4802.891    0.6190149 2.4190752e-312 1.2342348e-304 
   26600     489.2482   -3604.0999     281.8998   0.84124912   -1678.7274   -4153.9404    138.98203   -4790.7662    0.6190149 2.4190752e-312 1.2342348e-304 
   26700    491.14371   -3610.7473    292.60091    1.1482033   -723.92575   -4181.7403     129.9958   -4831.4772    0.6190149 2.4190752e-312 1.2342348e-304 
   26800    493.07377   -3587.9779    298.19121    1.1446661    923.13886    -4169.854    184.40342   -4862.6701    0.6190149 2.4190752e-312 1.2342348e-304 
   26900    495.01925   -3589.0427    307.25206   0.82553719   -2375.2962   -4188.2512    112.45653   -4794.6587    0.6190149 2.4190752e-312 1.2342348e-304 
   27000    496.93512   -3599.1647     301.7915   0.83009329    370.53647   -4187.7336    144.28108   -4838.9809    0.6190149 2.4190752e-312 1.2342348e-304 
   27100    498.79706   -3587.5428    311.11082    1.3240443   -1895.2725    -4194.814    119.41728   -4797.1014    0.6190149 2.4190752e-312 1.2342348e-304 
   27200    500.75045   -3585.8961    305.51012    1.1858894    925.09777   -4182.0675    198.73873   -4880.3389    0.6190149 2.4190752e-312 1.2342348e-304 
   27300     502.7046   -3616.0341    290.06704   0.75538561    81.088463   -4181.6943    136.83348   -4837.9433    0.6190149 2.4190752e-312 1.2342348e-304 
   27400    504.65022   -3624.8126    290.08638   0.77046904   -1047.1249   -4190.5256    192.90432   -4881.6682    0.6190149 2.4190752e-312 1.2342348e-304 
   27500    506.55744   -3611.7988    295.11035     1.147451   -596.47891   -4187.7165    101.55697   -4824.9067    0.6190149 2.4190752e-312 1.2342348e-304 
   27600    508.47409   -3589.5142    306.46729    1.1982534   -909.66521   -4187.5622    151.24431   -4842.9098    0.6190149 2.4190752e-312 1.2342348e-304 
   27700    510.36768   -3565.4747    314.28712   0.89327871    -842.8199   -4178.4425    150.45534   -4824.9288    0.6190149 2.4190752e-312 1.2342348e-304 
   27800    512.25665   -3572.1084    294.40414   0.88872844   -1001.0269   -4146.3889     99.18982   -4771.6433    0.6190149 2.4190752e-312 1.2342348e-304 
   27900    514.17877   -3587.1531    309.20249    1.2290403   -1159.7136   -4190.5582    158.66872   -4831.9966    0.6190149 2.4190752e-312 1.2342348e-304 
   28000    516.06787   -3613.4561    295.43532    1.2370417   -1493.8262    -4190.059    97.426213   -4775.4235    0.6190149 2.4190752e-312 1.2342348e-304 
   28100    517.90386   -3633.9715    286.23553   0.86497092     1292.851   -4192.2811      148.093   -4837.0233    0.6190149 2.4190752e-312 1.2342348e-304 
   28200    520.00129   -3622.5361    307.06662   0.89785233   -2828.1988   -4221.4468    83.669541   -4813.3175    0.6190149 2.4190752e-312 1.2342348e-304 
   28300    522.11702   -3612.6356    292.54353    1.1258828     56.36277   -4183.4972    137.96109   -4807.4176    0.6190149 2.4190752e-312 1.2342348e-304 
   28400    524.06288   -3600.5996    289.12007    1.1935709   -329.29875   -4164.8598    130.82039    -4830.625    0.6190149 2.4190752e-312 1.2342348e-304 
   28500    526.15656    -3590.974    280.68108   0.82098257   -681.71789   -4138.4221    158.54681   -4839.1355    0.6190149 2.4190752e-312 1.2342348e-304 
   28600    528.31129   -3569.6563    301.89654   0.94906986   -103.35321   -4158.5504    117.77908   -4797.4371    0.6190149 2.4190752e-312 1.2342348e-304 
   28700    530.74612   -3559.5561    300.95225    1.1676863   -1203.1968   -4146.8327    121.11823   -4799.2066    0.6190149 2.4190752e-312 1.2342348e-304 
   28800    532.60952   -3557.8757    307.11298    1.1287184   -1204.7142   -4157.1106    141.50982   -4782.3514    0.6190149 2.4190752e-312 1.2342348e-304 
   28900      534.523   -3571.1128    302.67997   0.82555414   -1303.5491   -4161.4074    91.228976   -4718.4687    0.6190149 2.4190752e-312 1.2342348e-304 
   29000    536.40923   -3587.8911    293.90349   0.94846041   -1112.0935   -4161.2183    131.40156   -4763.6285    0.6190149 2.4190752e-312 1.2342348e-304 
   29100    538.23519    -3590.898     289.4959    1.2050092    59.294985   -4155.9016    157.90998   -4810.1503    0.6190149 2.4190752e-312 1.2342348e-304 
   29200    540.08407   -3563.8372    308.10995    1.0238927   -1098.1061   -4164.9075    128.87588   -4769.2462    0.6190149 2.4190752e-312 1.2342348e-304 
   29300    541.93498   -3596.3503    282.88664    0.7999957   -333.40652   -4148.0971    138.61051   -4770.0006    0.6190149 2.4190752e-312 1.2342348e-304 
   29400    543.76263   -3613.4403    291.95056    1.0253272   -1557.2877   -4183.0517    76.607135   -4713.8961    0.6190149 2.4190752e-312 1.2342348e-304 
   29500    546.01126   -3623.8143    289.86895    1.3067194     194.3077   -4189.6756    125.01896   -4780.6463    0.6190149 2.4190752e-312 1.2342348e-304 
   29600    547.99162   -3607.8659    288.62255   0.94296222   -494.35962   -4170.9033    127.88568   -4783.0757    0.6190149 2.4190752e-312 1.2342348e-304 
   29700     549.9386   -3595.8346    308.08955    0.9097181   -738.74898   -4196.7494    118.66108   -4780.9968    0.6190149 2.4190752e-312 1.2342348e-304 
   29800    551.76287   -3592.2895    287.04833   0.99895638      14.9307   -4152.3178    99.286398   -4756.8272    0.6190149 2.4190752e-312 1.2342348e-304 
   29900    553.60578   -3559.9333    298.59253    1.2132703   -1507.0227   -4142.7151    101.29215   -4749.8112    0.6190149 2.4190752e-312 1.2342348e-304 
   30000    555.46344   -3545.9038    298.76229   0.96609771   -1652.0229   -4128.7162    117.03909   -4770.9427    0.6190149 2.4190752e-312 1.2342348e-304 
   30100    557.25658   -3592.8153    295.07592   0.77674888   -163.87884   -4168.2519    152.93009   -4811.9978    0.6190149 2.4190752e-312 1.2342348e-304 
   30200    559.29927   -3624.8767    271.09209    1.0603286   -535.53346    -4153.893    139.49302   -4781.0972    0.6190149 2.4190752e-312 1.2342348e-304 
   30300    561.12525   -3595.4221    298.78728    1.2025015   -756.28954   -4178.5178    150.95953   -4821.7593    0.6190149 2.4190752e-312 1.2342348e-304 
   30400    563.00689   -3552.7982    310.22573   0.92619103   -1192.7654   -4157.8988     90.97917   -4743.5779    0.6190149 2.4190752e-312 1.2342348e-304 
   30500     564.8967   -3544.2096    305.79084   0.90193778    -2093.082   -4140.6708    98.793422   -4757.7157    0.6190149 2.4190752e-312 1.2342348e-304 
   30600    566.79306   -3562.7837    289.74024    1.0598031   -1928.4497   -4128.1161    76.930771   -4724.0951    0.6190149 2.4190752e-312 1.2342348e-304 
   30700    568.69416   -3575.1134    294.84289    1.0581603    -475.6556   -4150.3812    139.37317   -4789.1542    0.6190149 2.4190752e-312 1.2342348e-304 
   30800    570.59205   -3598.8313    288.93677   0.90008639   -1082.7356    -4162.437     96.29358   -4749.9756    0.6190149 2.4190752e-312 1.2342348e-304 
   30900    572.49251    -3600.588    299.55516   0.89952882   -1266.1098   -4184.8721    116.26841   -4775.2853    0.6190149 2.4190752e-312 1.2342348e-304 
   31000    574.71359   -3570.6269    318.04932    1.0438499   -1168.3063   -4191.0739    92.082313   -4757.8886    0.6190149 2.4190752e-312 1.2342348e-304 
   31100    576.54518   -3561.9071    307.69706    1.1412648    1116.2129   -4162.3154    146.24645   -4808.7295    0.6190149 2.4190752e-312 1.2342348e-304 
   31200    578.35949   -3548.8356    309.58028   0.97986326   -2228.1113   -4152.8126    110.75088   -4756.0079    0.6190149 2.4190752e-312 1.2342348e-304 
   31300    580.25436   -3523.8368    308.00801   0.93253281   -692.95991   -4124.7045    125.33085   -4786.6031    0.6190149 2.4190752e-312 1.2342348e-304 
   31400    582.09555   -3560.1739    295.88445    1.1614872    406.20609   -4137.6407    114.43153   -4743.5271    0.6190149 2.4190752e-312 1.2342348e-304 
   31500    583.93858   -3594.7179     304.3494    1.0024075   -926.18978   -4188.4429    137.73341    -4826.328    0.6190149 2.4190752e-312 1.2342348e-304 
   31600    585.77516    -3622.738     296.8912   0.82257533   -1179.6072   -4201.7654    123.11542   -4839.3494    0.6190149 2.4190752e-312 1.2342348e-304 
   31700    587.57234   -3633.6064    288.15241   0.90410911   -755.65644   -4195.6885    77.821872   -4770.6871    0.6190149 2.4190752e-312 1.2342348e-304 
   31800    589.42459   -3591.4609    294.36859    1.1671296    194.41046   -4165.9155    162.68944   -4825.5464    0.6190149 2.4190752e-312 1.2342348e-304 
   31900    591.28902   -3564.7512    311.69325    1.0526571    429.61045    -4172.829    138.68602   -4828.8234    0.6190149 2.4190752e-312 1.2342348e-304 
   32000    593.11685   -3605.2072    300.29112   0.84941797   -910.58316   -4190.8875    83.534017   -4778.7851    0.6190149 2.4190752e-312 1.2342348e-304 
   32100    594.89687   -3645.3331     285.2484   0.97795702   -942.97409   -4201.8348     127.8867   -4831.8678    0.6190149 2.4190752e-312 1.2342348e-304 
   32200    596.70242   -3626.9124    292.92655    1.2520833   -1779.3719   -4198.6448    71.445239   -4768.5454    0.6190149 2.4190752e-312 1.2342348e-304 
   32300    598.54894   -3607.6219    288.70208     1.036643    73.131097    -4170.909     120.7701   -4777.7946    0.6190149 2.4190752e-312 1.2342348e-304 
   32400    600.36514   -3582.4295    293.42839   0.87988834   -799.29747    -4154.762    122.91249   -4806.9255    0.6190149 2.4190752e-312 1.2342348e-304 
   32500    602.16679   -3561.0338    295.99692     0.959445   -290.29975   -4138.4491    94.647607   -4759.6935    0.6190149 2.4190752e-312 1.2342348e-304 
   32600    603.98478   -3580.3298     312.3495     1.204101   -1583.9666   -4189.8391    116.22948   -4787.9046    0.6190149 2.4190752e-312 1.2342348e-304 
   32700    605.84391   -3616.0326    295.29209   0.89149504   -187.55373   -4192.0063    79.092105   -4744.2377    0.6190149 2.4190752e-312 1.2342348e-304 
   32800    607.66914   -3615.5124    294.58611   0.86918958   -930.00825   -4190.0887    98.416362   -4793.3899    0.6190149 2.4190752e-312 1.2342348e-304 
   32900    609.51042   -3602.1057    296.81373    1.0619178   -2559.1688   -4181.2155    106.91561   -4788.5213    0.6190149 2.4190752e-312 1.2342348e-304 
[...]
  196400     4036.108   -3663.7754    291.12791    1.2649582    -772.9629   -4232.0181    133.30034   -4894.7074    0.6190149 2.4190752e-312 1.2342348e-304 
  196500    4038.0607     -3653.49    297.84402   0.88030903    474.91018   -4234.4222    144.75774   -4899.7875    0.6190149 2.4190752e-312 1.2342348e-304 
  196600    4040.0742   -3677.7781    300.19693   0.85476311   -741.72198   -4263.2666    147.25214   -4912.8726    0.6190149 2.4190752e-312 1.2342348e-304 
  196700    4042.1258   -3701.2022    286.14802     1.140035   -2717.1052   -4259.6202    125.90362    -4896.383    0.6190149 2.4190752e-312 1.2342348e-304 
  196800     4044.228   -3705.2058      293.809    1.1388545    329.58046   -4278.5621    128.00974   -4904.1053    0.6190149 2.4190752e-312 1.2342348e-304 
  196900    4046.2814   -3704.6406    299.57901   0.82867842    997.41821   -4288.8993    170.82867    -4954.821    0.6190149 2.4190752e-312 1.2342348e-304 
  197000     4048.242   -3709.9767      285.425    0.8591207   -1417.8121   -4266.7646    113.83223   -4878.4698    0.6190149 2.4190752e-312 1.2342348e-304 
  197100    4050.1214   -3687.1049    304.00832    1.1455293   -370.26641   -4280.3105     131.4566   -4940.8169    0.6190149 2.4190752e-312 1.2342348e-304 
  197200     4052.096   -3684.4339    300.29182    1.1076335   -616.75331   -4270.3636    154.92568   -4955.6819    0.6190149 2.4190752e-312 1.2342348e-304 
  197300    4054.5374   -3686.9491    305.87333     0.820409   -1267.6186   -4283.4575    154.60049   -4947.6171    0.6190149 2.4190752e-312 1.2342348e-304 
  197400    4056.4781   -3676.9559    286.09286   0.89638868    326.34033   -4235.0195    119.88167   -4894.5522    0.6190149 2.4190752e-312 1.2342348e-304 
  197500    4058.4133   -3642.1919    316.79893    1.2158091    152.94381   -4260.4101    160.07244   -4933.1519    0.6190149 2.4190752e-312 1.2342348e-304 
  197600    4060.3035   -3643.0619    307.16263    0.9935215   -721.46863   -4242.2611    145.72384   -4913.5351    0.6190149 2.4190752e-312 1.2342348e-304 
  197700    4062.1995   -3665.5436    309.83507   0.80411747   -54.127477   -4269.7512    131.51537   -4924.3128    0.6190149 2.4190752e-312 1.2342348e-304 
  197800    4064.1699   -3696.5055    287.63075    1.0100872    57.781289   -4257.6793    183.47977   -4931.1473    0.6190149 2.4190752e-312 1.2342348e-304 
  197900    4066.0638   -3708.2957    290.55876    1.1756684   -541.88012   -4275.3395     117.6544   -4879.1696    0.6190149 2.4190752e-312 1.2342348e-304 
  198000    4067.9814   -3705.4708    297.27076   0.98587988    542.45124   -4285.3936    161.34935   -4949.3288    0.6190149 2.4190752e-312 1.2342348e-304 
  198100    4069.8722    -3680.916    294.97492   0.77285651   -893.11193   -4256.1519    176.71064   -4976.8315    0.6190149 2.4190752e-312 1.2342348e-304 
  198200    4071.7746   -3666.3727    303.30897    1.0221362   -331.29592   -4258.0914    132.88448   -4928.7585    0.6190149 2.4190752e-312 1.2342348e-304 
  198300    4073.6959   -3668.1391    307.05529    1.2115102    1044.9748   -4267.3456    164.29251   -4947.1379    0.6190149 2.4190752e-312 1.2342348e-304 
  198400    4075.5932   -3683.5528    294.73889    1.0436302   -368.81874   -4258.6035    132.79677   -4876.9076    0.6190149 2.4190752e-312 1.2342348e-304 
  198500    4077.5013   -3707.6694    293.02939   0.93669191   -709.77043   -4279.2825    111.32553   -4921.8309    0.6190149 2.4190752e-312 1.2342348e-304 
  198600    4079.3921   -3707.1616    282.38285    1.0524957   -527.98661   -4258.1973    170.83779   -4960.5386    0.6190149 2.4190752e-312 1.2342348e-304 
  198700    4081.4321   -3681.0556    295.47367    1.1198323    -959.6898   -4257.6144    117.66474   -4918.0724    0.6190149 2.4190752e-312 1.2342348e-304 
  198800    4083.4837   -3658.5775    305.50478   0.88922439    150.37842   -4254.4379    155.87745   -4941.9298    0.6190149 2.4190752e-312 1.2342348e-304 
  198900     4085.653   -3683.6993     303.8527   0.89896405   -1407.9869   -4276.3547    122.44714   -4920.6231    0.6190149 2.4190752e-312 1.2342348e-304 
  199000    4088.1274   -3709.7253    286.27325    1.0858224   -15.687707   -4268.3933    147.48596   -4935.0336    0.6190149 2.4190752e-312 1.2342348e-304 
  199100    4090.3341   -3726.8789    287.29867    1.1723116   -283.70179   -4287.5705     115.7255   -4931.7449    0.6190149 2.4190752e-312 1.2342348e-304 
  199200    4092.2322   -3696.9322    297.36584   0.87448937   -999.46282   -4276.9273    131.87389   -4963.7322    0.6190149 2.4190752e-312 1.2342348e-304 
  199300    4094.3379   -3655.6344    297.59346   0.89619169   -984.76854   -4236.0948    138.41622   -4908.2418    0.6190149 2.4190752e-312 1.2342348e-304 
  199400    4096.5315   -3652.9746    317.07097    1.2422662    228.33761   -4271.7175    111.70293   -4916.1441    0.6190149 2.4190752e-312 1.2342348e-304 
  199500    4098.9171   -3685.5417    288.58781    1.0292052   -1122.8925   -4248.5988     125.9398   -4887.4556    0.6190149 2.4190752e-312 1.2342348e-304 
  199600    4101.3274   -3701.0577    299.89293   0.90532192   -433.86428   -4286.0055    180.92666   -4967.6225    0.6190149 2.4190752e-312 1.2342348e-304 
  199700    4103.4459   -3719.4826     283.8251    1.0077851     108.8642   -4273.2816      111.403   -4896.2138    0.6190149 2.4190752e-312 1.2342348e-304 
  199800    4106.1609   -3709.1761    279.62696    1.1490869    -2249.591   -4254.9037    123.53665   -4890.2058    0.6190149 2.4190752e-312 1.2342348e-304 
  199900     4108.325   -3675.2721    293.33383     1.072079    1511.7362   -4247.6582    141.90616   -4904.4227    0.6190149 2.4190752e-312 1.2342348e-304 
  200000     4110.283   -3680.7076    296.22336   0.89014353   -123.72927   -4258.4937    156.57137   -4930.4602    0.6190149 2.4190752e-312 1.2342348e-304 
  200100    4112.6925   -3679.4548    304.67687    1.0593395   -922.98017   -4273.8995    169.32782     -4973.52    0.6190149 2.4190752e-312 1.2342348e-304 
  200200    4114.8277    -3681.539    296.47497    1.0855358    1296.0716    -4260.013    146.83278   -4918.8148    0.6190149 2.4190752e-312 1.2342348e-304 
  200300    4120.2963    -3704.463    281.18825    1.0237253   -1268.9569   -4253.1041    109.73948   -4883.3685    0.6190149 2.4190752e-312 1.2342348e-304 
  200400    4122.7306   -3682.8463    299.40839   0.95812462   -263.46674    -4266.934    158.42206   -4927.3949    0.6190149 2.4190752e-312 1.2342348e-304 
  200500    4125.1976   -3693.0064    288.04112    1.0134542   -1090.1462   -4254.9828    81.324374   -4856.9453    0.6190149 2.4190752e-312 1.2342348e-304 
  200600    4127.4226    -3703.983    292.49237    1.0970132   -592.61541   -4274.7127    147.57959   -4949.7073    0.6190149 2.4190752e-312 1.2342348e-304 
  200700    4129.6285   -3673.2358    313.87204    1.0193376   -348.06083   -4285.5229      149.175   -4960.1755    0.6190149 2.4190752e-312 1.2342348e-304 
  200800    4131.5751   -3679.9667    302.84161   0.88203175    12.760575   -4270.6333    106.35742   -4903.7027    0.6190149 2.4190752e-312 1.2342348e-304 
  200900    4133.5779   -3690.1814    293.20095    1.0892206   -2685.1794   -4262.2831    116.51952   -4908.0604    0.6190149 2.4190752e-312 1.2342348e-304 
  201000    4135.5334   -3694.0766    300.22572    1.0953824      -710.65    -4279.865     108.6575    -4897.823    0.6190149 2.4190752e-312 1.2342348e-304 
  201100    4138.2405    -3706.394    291.67403   0.98840985    174.61479     -4275.42    121.71322   -4925.3236    0.6190149 2.4190752e-312 1.2342348e-304 
  201200    4141.4331   -3690.7031    283.62085   0.95461193   -1243.4247   -4244.0275    160.58355   -4907.8357    0.6190149 2.4190752e-312 1.2342348e-304 
  201300    4143.9846   -3698.8397    292.17684    1.1285654    458.37637    -4268.987    158.27029    -4937.479    0.6190149 2.4190752e-312 1.2342348e-304 
  201400    4146.2722    -3707.503    304.26656    1.1284529   -465.10895   -4301.1944    97.754123   -4909.3014    0.6190149 2.4190752e-312 1.2342348e-304 
  201500    4148.1851   -3687.8333    289.30953   0.90774243    -2979.869   -4252.1728    137.05391   -4922.7604    0.6190149 2.4190752e-312 1.2342348e-304 
  201600    4150.1019   -3637.6057    305.64418   0.97543628   -922.97567   -4233.8249    116.31458   -4889.0859    0.6190149 2.4190752e-312 1.2342348e-304 
  201700    4152.0056   -3635.7329    307.28436    1.0827846    -507.4592   -4235.2551    107.92367   -4880.4785    0.6190149 2.4190752e-312 1.2342348e-304 
  201800    4154.2026   -3683.9955    296.35752   0.97437777   -904.90015   -4262.1282    171.79118   -4957.0425    0.6190149 2.4190752e-312 1.2342348e-304 
  201900    4156.2532   -3718.6538     291.1666   0.94737886    -671.7819   -4286.6621    136.50929   -4950.1668    0.6190149 2.4190752e-312 1.2342348e-304 
  202000    4158.6447   -3700.7264    304.56598    1.0240919    557.29152    -4294.895     163.4835   -4972.0749    0.6190149 2.4190752e-312 1.2342348e-304 
  202100    4160.6622   -3667.3129    303.77869    1.1289504    -1621.513   -4260.0547        138.8   -4943.9081    0.6190149 2.4190752e-312 1.2342348e-304 
  202200      4162.76    -3647.089    301.45657   0.94965835     104.9159   -4235.1269    107.01265   -4886.1581    0.6190149 2.4190752e-312 1.2342348e-304 
  202300    4164.9255   -3635.9839    304.16691    0.9144519   -2246.6774   -4229.2643    120.94969   -4883.7815    0.6190149 2.4190752e-312 1.2342348e-304 
  202400    4166.9215   -3663.8998    299.01282    1.0842944   -1000.5318    -4247.315    114.15085   -4889.7051    0.6190149 2.4190752e-312 1.2342348e-304 
  202500     4168.861   -3706.2187     298.8543    1.0424597   -134.65771   -4289.2827    135.86161   -4941.1727    0.6190149 2.4190752e-312 1.2342348e-304 
  202600    4170.7809   -3749.7372    283.20995    0.9747475   -46.048105   -4302.2731    165.61155   -4970.5484    0.6190149 2.4190752e-312 1.2342348e-304 
  202700    4172.6979   -3729.8207    306.33372   0.94929945    666.25865   -4327.3563    137.06878   -4978.6588    0.6190149 2.4190752e-312 1.2342348e-304 
  202800    4174.6526   -3709.8726    299.95771   0.99495641    -287.6449   -4295.0858    128.58323   -4939.7659    0.6190149 2.4190752e-312 1.2342348e-304 
  202900    4176.6347   -3690.1372    282.42651    1.0380682   -665.23527   -4241.2043    150.59244     -4931.43    0.6190149 2.4190752e-312 1.2342348e-304 
  203000    4178.8907   -3654.0116    310.04143     0.947434   -698.24593   -4258.7659    159.01919   -4948.4735    0.6190149 2.4190752e-312 1.2342348e-304 
  203100    4181.1188   -3662.1055    294.83035    1.0117799   -338.10263   -4237.3018    114.66776    -4888.243    0.6190149 2.4190752e-312 1.2342348e-304 
  203200    4183.1748   -3677.6051    306.87222   0.97932536    213.00639   -4276.2198    165.88615   -4956.9871    0.6190149 2.4190752e-312 1.2342348e-304 
  203300    4185.1916   -3693.0594    311.12218    1.0500016   -159.88829   -4300.0561    136.15472   -4933.9692    0.6190149 2.4190752e-312 1.2342348e-304 
  203400    4187.1061   -3709.0846    285.81093   0.98104998   -1005.8174   -4266.7065    134.00971    -4910.924    0.6190149 2.4190752e-312 1.2342348e-304 
  203500    4189.0174   -3675.9031    305.82892    1.0496136    440.72741    -4272.601     131.5844   -4924.2428    0.6190149 2.4190752e-312 1.2342348e-304 
  203600    4191.1567   -3637.9287    315.16009     1.090402    -1201.618   -4252.7962    174.20685   -4950.7013    0.6190149 2.4190752e-312 1.2342348e-304 
  203700    4193.3229   -3645.4018    300.37496   0.98316317   -969.57822   -4231.3672    85.069682    -4859.003    0.6190149 2.4190752e-312 1.2342348e-304 
  203800    4195.2609    -3652.554    305.56717   0.99249546    40.277125   -4248.6813    147.36622   -4894.4252    0.6190149 2.4190752e-312 1.2342348e-304 
  203900    4197.1575   -3660.0573    304.51501   0.95009001    -857.2684   -4254.0555    110.23985   -4862.7018    0.6190149 2.4190752e-312 1.2342348e-304 
  204000    4199.0792   -3689.8397    306.43908    1.0532865    -1097.419   -4287.6858     136.9672   -4932.6853    0.6190149 2.4190752e-312 1.2342348e-304 
  204100    4201.0759   -3718.3719    298.40035     1.000181   -1715.1973   -4300.5091    103.77261   -4886.1928    0.6190149 2.4190752e-312 1.2342348e-304 
  204200    4203.0837   -3698.6967    293.13812   0.90182481    412.78113   -4270.4897    170.54427   -4942.3489    0.6190149 2.4190752e-312 1.2342348e-304 
  204300    4205.2023   -3679.1061    294.92445   0.99567993    1013.2054   -4254.4695    167.11343   -4936.1489    0.6190149 2.4190752e-312 1.2342348e-304 
  204400    4207.2375   -3668.8531    297.28335    1.1959838   -567.93935   -4249.0133    129.07361   -4895.3331    0.6190149 2.4190752e-312 1.2342348e-304 
  204500    4209.5108   -3676.2797    299.56039   0.99163285   -1237.9035   -4260.6674    129.40981   -4898.7399    0.6190149 2.4190752e-312 1.2342348e-304 
  204600    4212.0741   -3702.9834    291.35697   0.85194763   -716.15766   -4271.2536    129.09929   -4916.9221    0.6190149 2.4190752e-312 1.2342348e-304 
  204700    4214.1318   -3714.0071     292.1743    1.0581449    -1253.726    -4284.078    141.11444   -4956.2093    0.6190149 2.4190752e-312 1.2342348e-304 
  204800    4216.0795   -3713.7053    297.89974    1.0716662   -508.69213     -4294.94     129.7479   -4904.4622    0.6190149 2.4190752e-312 1.2342348e-304 
  204900    4218.1996   -3703.3984    293.04629   0.89500557   -1659.0019   -4275.0021    144.98061   -4937.6338    0.6190149 2.4190752e-312 1.2342348e-304 
  205000    4220.2941   -3704.4103    294.22103   0.91258986    89.382164   -4278.3197    143.36971   -4934.8992    0.6190149 2.4190752e-312 1.2342348e-304 
  205100    4223.2762   -3731.4962    292.81034    1.1055411    535.49938   -4302.8538    188.22096   -5006.2454    0.6190149 2.4190752e-312 1.2342348e-304 
  205200    4226.3889    -3717.936    290.09513    1.1337696   -1622.7832   -4284.0344    131.87635   -4933.2216    0.6190149 2.4190752e-312 1.2342348e-304 
  205300    4228.3782   -3694.6614    298.02298   0.98517853     861.5669   -4276.0485    128.70244   -4939.1017    0.6190149 2.4190752e-312 1.2342348e-304 
  205400    4230.6337   -3663.5286    306.81849   0.95384617   -1000.5506   -4262.0129    163.59194   -4939.4607    0.6190149 2.4190752e-312 1.2342348e-304 
  205500    4232.9748   -3678.1434    308.60061    1.1438619   -1689.1234   -4280.2908    109.90299    -4899.701    0.6190149 2.4190752e-312 1.2342348e-304 
  205600    4235.1994   -3686.9633    298.32701    1.1288118   -993.58495    -4269.088    89.297853   -4871.7707    0.6190149 2.4190752e-312 1.2342348e-304 
  205700    4237.4178   -3694.0931    302.00471   0.99607046   -1852.6172   -4283.2522    117.04435   -4925.5355    0.6190149 2.4190752e-312 1.2342348e-304 
  205800    4239.3989   -3671.6039     300.3395   0.96480647   -95.830987   -4257.5279     154.3095   -4942.2902    0.6190149 2.4190752e-312 1.2342348e-304 
  205900    4241.5041   -3664.4015    309.20161    1.0849926    982.11331   -4267.6596    166.46209   -4972.7156    0.6190149 2.4190752e-312 1.2342348e-304 
  206000    4243.6424   -3700.8527    285.67257    1.0040457   -1050.9225   -4258.2069    130.58508   -4913.4275    0.6190149 2.4190752e-312 1.2342348e-304 
  206100     4245.976   -3709.0513    281.06664   0.83716499   -1133.9132   -4257.2665    116.11334   -4877.4864    0.6190149 2.4190752e-312 1.2342348e-304 
  206200    4248.1561   -3681.3197    286.50187    1.0174535   -465.07618   -4240.3024    113.91701   -4889.3964    0.6190149 2.4190752e-312 1.2342348e-304 
  206300    4250.0776   -3635.8525    308.51646    1.1885673   -997.73753   -4237.8867    100.57018   -4838.0761    0.6190149 2.4190752e-312 1.2342348e-304 
  206400    4252.1858   -3646.0584     302.2827   0.93016563    -39.92823   -4235.6853    126.32381   -4881.6845    0.6190149 2.4190752e-312 1.2342348e-304 
  206500    4254.3421   -3663.7556    296.12865   0.83494211   -765.37686   -4241.3012    160.98839   -4926.2454    0.6190149 2.4190752e-312 1.2342348e-304 
  206600    4256.6431   -3675.9372    296.11097    1.0713651    -42.90853    -4253.688    141.18914   -4915.4151    0.6190149 2.4190752e-312 1.2342348e-304 
  206700    4258.8899   -3653.0344    310.34833    1.0348992    -1153.792   -4258.4751    127.07411   -4897.7536    0.6190149 2.4190752e-312 1.2342348e-304 
  206800    4261.0491   -3642.9191    305.81948   0.93076379   -1222.6631   -4239.4344    99.695617   -4869.0973    0.6190149 2.4190752e-312 1.2342348e-304 
  206900    4263.1258   -3660.4378    297.11015     1.090227   -2106.0878   -4240.1722    160.36967   -4916.4295    0.6190149 2.4190752e-312 1.2342348e-304 
  207000    4265.0889   -3678.9979    285.44173    1.0330409   -198.12429    -4235.932    137.25495   -4879.4783    0.6190149 2.4190752e-312 1.2342348e-304 
  207100    4266.9669    -3679.182    298.28821    1.0915583    1072.7771   -4261.1934    148.16268   -4918.1024    0.6190149 2.4190752e-312 1.2342348e-304 
  207200    4268.8575   -3682.6128    281.23237   0.85294543   -2090.0568   -4231.1668    146.33141   -4887.5586    0.6190149 2.4190752e-312 1.2342348e-304 
  207300    4270.7324   -3648.9613    290.93808    1.0341031   -735.27235   -4216.6003    113.29209   -4849.9283    0.6190149 2.4190752e-312 1.2342348e-304 
  207400      4272.62   -3620.6831    297.13221    1.0964624   -163.04098   -4200.4482    123.74773   -4841.2539    0.6190149 2.4190752e-312 1.2342348e-304 
  207500    4275.4053   -3615.5534    305.18591   0.92409823   -1321.4673   -4210.8281    94.604048    -4834.957    0.6190149 2.4190752e-312 1.2342348e-304 
  207600    4278.9526   -3652.5649    288.95815   0.87318573   -1638.8361   -4216.1849    129.24574   -4853.8685    0.6190149 2.4190752e-312 1.2342348e-304 
  207700    4282.1757    -3668.574    308.91831    0.9817526   -449.74665   -4271.1758    137.94099   -4910.4605    0.6190149 2.4190752e-312 1.2342348e-304 
  207800    4284.5022   -3683.7697    295.86629    1.1219214   -1096.5649   -4261.0953    107.71541   -4873.0089    0.6190149 2.4190752e-312 1.2342348e-304 
  207900    4286.8955   -3683.9034    280.05939   0.93568928   -80.915901   -4230.2569    126.28215   -4897.7786    0.6190149 2.4190752e-312 1.2342348e-304 
  208000    4289.0093   -3648.5539    299.70724   0.89579094    -2064.807   -4233.1304    141.08033   -4907.3229    0.6190149 2.4190752e-312 1.2342348e-304 
  208100     4291.197   -3614.0201    312.13514    1.0819208    264.65599   -4222.9881    154.06821   -4899.1255    0.6190149 2.4190752e-312 1.2342348e-304 
  208200     4293.466   -3630.4893    294.18692    1.0585848    41.935518   -4204.4802      133.638   -4857.5569    0.6190149 2.4190752e-312 1.2342348e-304 
  208300    4295.4647   -3664.2343    299.03811   0.93327816   -1918.6893   -4247.5456    103.23003   -4845.9581    0.6190149 2.4190752e-312 1.2342348e-304 
  208400    4297.5151   -3679.8411    294.92217   0.93464077   -454.60135   -4255.1945    151.81381   -4927.8783    0.6190149 2.4190752e-312 1.2342348e-304 
  208500    4299.4353   -3678.2853    307.27035    1.0661803   -409.96158   -4277.7829      116.843   -4912.2747    0.6190149 2.4190752e-312 1.2342348e-304 
  208600    4301.3684   -3645.5741    302.45488    1.1332614   -1898.0767   -4235.7761    137.03234   -4907.3945    0.6190149 2.4190752e-312 1.2342348e-304 
  208700    4303.3836   -3628.5859    314.26305   0.92702302   -411.37874   -4241.5409    145.90554   -4897.3076    0.6190149 2.4190752e-312 1.2342348e-304 
  208800    4305.4844   -3642.4824    294.04601   0.87199089   -5.1286389   -4216.0097     164.2453   -4924.8477    0.6190149 2.4190752e-312 1.2342348e-304 
  208900    4307.4445   -3652.8165    312.10866    1.0977373   -1065.1955    -4261.749    112.39045   -4882.8861    0.6190149 2.4190752e-312 1.2342348e-304 
  209000    4309.4057   -3654.8789    292.80638    1.0245534    596.40382   -4226.1467    147