created by fftool

960 atoms
820 bonds
1020 angles
1100 dihedrals
14 atom types
9 bond types
12 angle types
10 dihedral types
0.000000 25.000000 xlo xhi
0.000000 25.000000 ylo yhi
0.000000 25.000000 zlo zhi

Masses

   1    1.008  # H1
   2   12.011  # C1
   3   14.007  # N4
   4   12.011  # C1A
   5    1.008  # HC
   6   12.011  # COL
   7    1.008  # HO
   8   15.999  # OH
   9   15.999  # O2
  10   12.011  # CTA
  11   12.011  # CO2
  12   15.999  # OHw
  13    1.008  # HOw
  14    0.000  # M

Bond Coeffs

   1   339.985660     1.090000  # HC-CT
   2   382.002868     1.448000  # NT-CT
   3   267.925430     1.529000  # CT-CT
   4   320.004780     1.410000  # CT-OH
   5   552.999522     0.945000  # HO-OH
   6   655.951243     1.250000  # CO-O2
   7   317.041109     1.522000  # CT-CO
   8   517.630258     0.957200  # Ow-Hw
   9   500.000000     0.240300  # Ow-M

Angle Coeffs

   1    32.994742   107.800000  # HC-CT-HC
   2    35.002390   109.500000  # HC-CT-NT
   3    51.804493   107.200000  # CT-NT-CT
   4    56.202199   109.500000  # NT-CT-CT
   5    37.500000   110.700000  # CT-CT-HC
   6    50.000000   109.500000  # CT-CT-OH
   7    35.002390   109.500000  # HC-CT-OH
   8    54.995220   108.500000  # CT-OH-HO
   9    35.719407   109.500000  # HC-CT-CO
  10    70.004780   117.000000  # CT-CO-O2
  11    79.995220   126.000000  # O2-CO-O2
  12    37.950526   104.520000  # Hw-Ow-Hw

Dihedral Coeffs

   1     0.000000     0.000000     0.559990     0.000000  # HC-CT-NT-CT
   2     0.415989    -0.128011     0.695005     0.000000  # CT-NT-CT-CT
   3    -1.013002    -0.709011     0.472992     0.000000  # HC-CT-CT-NT
   4   -10.528561    -1.298972     0.000000     0.000000  # OH-CT-CT-NT
   5     0.000000     0.000000     0.300000     0.000000  # HC-CT-CT-HC
   6     0.000000     0.000000     0.467997     0.000000  # HC-CT-CT-OH
   7    -0.355999    -0.173996     0.491993     0.000000  # CT-CT-OH-HO
   8     0.000000     0.000000     0.450000     0.000000  # HC-CT-OH-HO
   9     0.000000     0.000000     0.000000     0.000000  # HC-CT-CO-O2
  10     0.000000    21.000000     0.000000     0.000000  # CT-O2-CO-O2

Atoms

      1       1    1   0.1300  1.452439e+01  1.062985e+01  1.992135e+01  # H1 ch+
      2       1    2  -0.1700  1.554984e+01  1.039927e+01  2.026685e+01  # C1 ch+
      3       1    1   0.1300  1.578080e+01  9.333057e+00  2.008046e+01  # H1 ch+
      4       1    1   0.1300  1.628221e+01  1.107724e+01  1.978597e+01  # H1 ch+
      5       1    1   0.1300  1.350889e+01  1.026279e+01  2.196334e+01  # H1 ch+
      6       1    2  -0.1700  1.444862e+01  9.923209e+00  2.243792e+01  # C1 ch+
      7       1    1   0.1300  1.444805e+01  1.020016e+01  2.350939e+01  # H1 ch+
      8       1    1   0.1300  1.457953e+01  8.835128e+00  2.228800e+01  # H1 ch+
      9       1    3   0.1200  1.559415e+01  1.064094e+01  2.175745e+01  # N4 ch+
     10       1    1   0.1300  1.448871e+01  1.243044e+01  2.149867e+01  # H1 ch+
     11       1    2  -0.1700  1.541646e+01  1.212171e+01  2.201868e+01  # C1 ch+
     12       1    1   0.1300  1.529540e+01  1.224183e+01  2.310937e+01  # H1 ch+
     13       1    1   0.1300  1.628282e+01  1.267230e+01  2.161473e+01  # H1 ch+
     14       1    1   0.1300  1.684677e+01  9.000638e+00  2.213636e+01  # H1 ch+
     15       1    4  -0.1700  1.689735e+01  1.009000e+01  2.234937e+01  # C1A ch+
     16       1    1   0.1300  1.686080e+01  1.026208e+01  2.345446e+01  # H1 ch+
     17       1    5   0.0600  1.820196e+01  1.078937e+01  2.069825e+01  # HC ch+
     18       1    6   0.2750  1.822635e+01  1.065910e+01  2.179845e+01  # COL ch+
     19       1    5   0.0600  1.897578e+01  9.869891e+00  2.203874e+01  # HC ch+
     20       1    7   0.4180  1.839705e+01  1.264851e+01  2.181328e+01  # HO ch+
     21       1    8  -0.6830  1.862782e+01  1.186624e+01  2.244282e+01  # OH ch+
     22       2    1   0.1300  7.879689e+00  9.691115e+00  1.105614e+01  # H1 ch+
     23       2    2  -0.1700  7.877703e+00  8.816115e+00  1.037904e+01  # C1 ch+
     24       2    1   0.1300  8.775973e+00  8.195586e+00  1.056054e+01  # H1 ch+
     25       2    1   0.1300  6.939112e+00  8.239100e+00  1.049457e+01  # H1 ch+
     26       2    1   0.1300  8.920022e+00  1.112380e+01  9.572624e+00  # H1 ch+
     27       2    2  -0.1700  9.070351e+00  1.032980e+01  8.817250e+00  # C1 ch+
     28       2    1   0.1300  9.026137e+00  1.076659e+01  7.801368e+00  # H1 ch+
     29       2    1   0.1300  1.002457e+01  9.802346e+00  9.003760e+00  # H1 ch+
     30       2    3   0.1200  7.938303e+00  9.335828e+00  8.961830e+00  # N4 ch+
     31       2    1   0.1300  6.517209e+00  1.083010e+01  9.450617e+00  # H1 ch+
     32       2    2  -0.1700  6.651085e+00  1.007159e+01  8.654886e+00  # C1 ch+
     33       2    1   0.1300  6.791747e+00  1.056897e+01  7.679425e+00  # H1 ch+
     34       2    1   0.1300  5.809897e+00  9.357960e+00  8.661109e+00  # H1 ch+
     35       2    1   0.1300  9.202234e+00  7.799475e+00  8.294502e+00  # H1 ch+
     36       2    4  -0.1700  8.208552e+00  8.186749e+00  7.982638e+00  # C1A ch+
     37       2    1   0.1300  8.279622e+00  8.631195e+00  6.958143e+00  # H1 ch+
     38       2    5   0.0600  6.853826e+00  6.734201e+00  8.968608e+00  # HC ch+
     39       2    6   0.2750  7.190543e+00  7.022109e+00  7.952866e+00  # COL ch+
     40       2    5   0.0600  7.769134e+00  6.171450e+00  7.524071e+00  # HC ch+
     41       2    7   0.4180  5.278615e+00  7.539862e+00  7.700788e+00  # HO ch+
     42       2    8  -0.6830  6.074597e+00  7.276121e+00  7.102150e+00  # OH ch+
     43       3    1   0.1300  6.173121e+00  1.096325e+01  4.282528e+00  # H1 ch+
     44       3    2  -0.1700  7.193705e+00  1.130180e+01  4.543057e+00  # C1 ch+
     45       3    1   0.1300  7.140844e+00  1.217330e+01  5.223189e+00  # H1 ch+
     46       3    1   0.1300  7.779998e+00  1.046729e+01  4.975600e+00  # H1 ch+
     47       3    1   0.1300  6.008493e+00  1.220908e+01  2.344355e+00  # H1 ch+
     48       3    2  -0.1700  6.984284e+00  1.270387e+01  2.507574e+00  # C1 ch+
     49       3    1   0.1300  7.459254e+00  1.292526e+01  1.532819e+00  # H1 ch+
     50       3    1   0.1300  6.852060e+00  1.361300e+01  3.123638e+00  # H1 ch+
     51       3    3   0.1200  7.869962e+00  1.173791e+01  3.264482e+00  # N4 ch+
     52       3    1   0.1300  7.084612e+00  1.003853e+01  2.271211e+00  # H1 ch+
     53       3    2  -0.1700  8.073125e+00  1.052578e+01  2.380206e+00  # C1 ch+
     54       3    1   0.1300  8.419842e+00  1.089887e+01  1.400772e+00  # H1 ch+
     55       3    1   0.1300  8.788429e+00  9.836819e+00  2.860382e+00  # H1 ch+
     56       3    1   0.1300  8.861790e+00  1.335308e+01  4.164892e+00  # H1 ch+
     57       3    4  -0.1700  9.182781e+00  1.246692e+01  3.576405e+00  # C1A ch+
     58       3    1   0.1300  9.620412e+00  1.279798e+01  2.601186e+00  # H1 ch+
     59       3    5   0.0600  9.821605e+00  1.108838e+01  5.191603e+00  # HC ch+
     60       3    6   0.2750  1.025926e+01  1.168771e+01  4.368643e+00  # COL ch+
     61       3    5   0.0600  1.089170e+01  1.248738e+01  4.818971e+00  # HC ch+
     62       3    7   0.4180  1.076686e+01  9.903650e+00  3.629345e+00  # HO ch+
     63       3    8  -0.6830  1.108869e+01  1.087811e+01  3.537873e+00  # OH ch+
     64       4    1   0.1300  1.490771e+01  1.986398e+01  2.307811e+00  # H1 ch+
     65       4    2  -0.1700  1.494228e+01  2.027149e+01  3.335833e+00  # C1 ch+
     66       4    1   0.1300  1.434634e+01  1.963319e+01  4.015779e+00  # H1 ch+
     67       4    1   0.1300  1.599149e+01  2.037973e+01  3.674490e+00  # H1 ch+
     68       4    1   0.1300  1.311705e+01  2.114804e+01  1.614684e+00  # H1 ch+
     69       4    2  -0.1700  1.296672e+01  2.158865e+01  2.618129e+00  # C1 ch+
     70       4    1   0.1300  1.257957e+01  2.262070e+01  2.519455e+00  # H1 ch+
     71       4    1   0.1300  1.229586e+01  2.094678e+01  3.219375e+00  # H1 ch+
     72       4    3   0.1200  1.431497e+01  2.164542e+01  3.303265e+00  # N4 ch+
     73       4    1   0.1300  1.535376e+01  2.207549e+01  1.506820e+00  # H1 ch+
     74       4    2  -0.1700  1.519652e+01  2.256671e+01  2.486834e+00  # C1 ch+
     75       4    1   0.1300  1.463636e+01  2.350828e+01  2.351298e+00  # H1 ch+
     76       4    1   0.1300  1.616082e+01  2.270580e+01  3.004202e+00  # H1 ch+
     77       4    1   0.1300  1.337691e+01  2.142425e+01  5.167229e+00  # H1 ch+
     78       4    4  -0.1700  1.408391e+01  2.216102e+01  4.729098e+00  # C1A ch+
     79       4    1   0.1300  1.358682e+01  2.316011e+01  4.646121e+00  # H1 ch+
     80       4    5   0.0600  1.601592e+01  2.143615e+01  5.541022e+00  # HC ch+
     81       4    6   0.2750  1.532160e+01  2.229317e+01  5.647954e+00  # COL ch+
     82       4    5   0.0600  1.489488e+01  2.226879e+01  6.677309e+00  # HC ch+
     83       4    7   0.4180  1.684956e+01  2.334482e+01  4.908739e+00  # HO ch+
     84       4    8  -0.6830  1.601289e+01  2.352922e+01  5.481009e+00  # OH ch+
     85       5    1   0.1300  2.276158e+01  1.280769e+01  1.636187e+01  # H1 ch+
     86       5    2  -0.1700  2.289454e+01  1.347795e+01  1.549173e+01  # C1 ch+
     87       5    1   0.1300  2.330259e+01  1.445177e+01  1.582349e+01  # H1 ch+
     88       5    1   0.1300  2.353213e+01  1.299543e+01  1.472499e+01  # H1 ch+
     89       5    1   0.1300  2.055489e+01  1.337119e+01  1.674745e+01  # H1 ch+
     90       5    2  -0.1700  2.055143e+01  1.414558e+01  1.595755e+01  # C1 ch+
     91       5    1   0.1300  1.954396e+01  1.421359e+01  1.550463e+01  # H1 ch+
     92       5    1   0.1300  2.088911e+01  1.511396e+01  1.637199e+01  # H1 ch+
     93       5    3   0.1200  2.153088e+01  1.371606e+01  1.488674e+01  # N4 ch+
     94       5    1   0.1300  2.107338e+01  1.165907e+01  1.511207e+01  # H1 ch+
     95       5    2  -0.1700  2.101977e+01  1.241514e+01  1.430464e+01  # C1 ch+
     96       5    1   0.1300  1.996779e+01  1.258518e+01  1.401632e+01  # H1 ch+
     97       5    1   0.1300  2.165932e+01  1.211584e+01  1.345712e+01  # H1 ch+
     98       5    1   0.1300  2.191864e+01  1.572812e+01  1.443456e+01  # H1 ch+
     99       5    4  -0.1700  2.159696e+01  1.484159e+01  1.384701e+01  # C1A ch+
    100       5    1   0.1300  2.055894e+01  1.499975e+01  1.346013e+01  # H1 ch+
    101       5    5   0.0600  2.352117e+01  1.420040e+01  1.295058e+01  # HC ch+
    102       5    6   0.2750  2.255364e+01  1.464715e+01  1.264677e+01  # COL ch+
    103       5    5   0.0600  2.274698e+01  1.568436e+01  1.228753e+01  # HC ch+
    104       5    7   0.4180  2.233628e+01  1.294631e+01  1.162354e+01  # HO ch+
    105       5    8  -0.6830  2.196722e+01  1.390717e+01  1.157808e+01  # OH ch+
    106       6    1   0.1300  1.389518e+01  1.654437e+01  5.101343e+00  # H1 ch+
    107       6    2  -0.1700  1.284530e+01  1.654940e+01  4.752343e+00  # C1 ch+
    108       6    1   0.1300  1.223039e+01  1.588989e+01  5.394084e+00  # H1 ch+
    109       6    1   0.1300  1.245349e+01  1.758505e+01  4.718069e+00  # H1 ch+
    110       6    1   0.1300  1.459583e+01  1.485614e+01  3.689018e+00  # H1 ch+
    111       6    2  -0.1700  1.357703e+01  1.467957e+01  3.295930e+00  # C1 ch+
    112       6    1   0.1300  1.363489e+01  1.434994e+01  2.241061e+00  # H1 ch+
    113       6    1   0.1300  1.304425e+01  1.394897e+01  3.933026e+00  # H1 ch+
    114       6    3   0.1200  1.282890e+01  1.599413e+01  3.347469e+00  # N4 ch+
    115       6    1   0.1300  1.454888e+01  1.713915e+01  2.876429e+00  # H1 ch+
    116       6    2  -0.1700  1.355091e+01  1.695937e+01  2.431234e+00  # C1 ch+
    117       6    1   0.1300  1.365855e+01  1.645439e+01  1.455478e+00  # H1 ch+
    118       6    1   0.1300  1.298300e+01  1.790319e+01  2.371376e+00  # H1 ch+
    119       6    1   0.1300  1.102520e+01  1.495679e+01  3.619161e+00  # H1 ch+
    120       6    4  -0.1700  1.138829e+01  1.572030e+01  2.898143e+00  # C1A ch+
    121       6    1   0.1300  1.143738e+01  1.527856e+01  1.871191e+00  # H1 ch+
    122       6    5   0.0600  1.053115e+01  1.757182e+01  3.766749e+00  # HC ch+
    123       6    6   0.2750  1.040786e+01  1.691699e+01  2.881313e+00  # COL ch+
    124       6    5   0.0600  9.402091e+00  1.644013e+01  2.938696e+00  # HC ch+
    125       6    7   0.4180  1.101596e+01  1.852987e+01  1.873377e+00  # HO ch+
    126       6    8  -0.6830  1.047302e+01  1.767671e+01  1.676256e+00  # OH ch+
    127       7    1   0.1300  2.200832e+01  2.186603e+01  5.395865e+00  # H1 ch+
    128       7    2  -0.1700  2.111104e+01  2.159541e+01  4.807864e+00  # C1 ch+
    129       7    1   0.1300  2.072046e+01  2.061574e+01  5.143390e+00  # H1 ch+
    130       7    1   0.1300  2.034830e+01  2.239606e+01  4.874517e+00  # H1 ch+
    131       7    1   0.1300  2.353294e+01  2.097633e+01  3.906006e+00  # H1 ch+
    132       7    2  -0.1700  2.274310e+01  2.056555e+01  3.249462e+00  # C1 ch+
    133       7    1   0.1300  2.308898e+01  2.057303e+01  2.198241e+00  # H1 ch+
    134       7    1   0.1300  2.245585e+01  1.955219e+01  3.587276e+00  # H1 ch+
    135       7    3   0.1200  2.153370e+01  2.146825e+01  3.363060e+00  # N4 ch+
    136       7    1   0.1300  2.270274e+01  2.322579e+01  3.551914e+00  # H1 ch+
    137       7    2  -0.1700  2.194101e+01  2.283341e+01  2.850306e+00  # C1 ch+
    138       7    1   0.1300  2.238982e+01  2.267985e+01  1.853469e+00  # H1 ch+
    139       7    1   0.1300  2.105974e+01  2.349670e+01  2.832211e+00  # H1 ch+
    140       7    1   0.1300  2.027654e+01  1.983136e+01  2.984407e+00  # H1 ch+
    141       7    4  -0.1700  2.041016e+01  2.083715e+01  2.531435e+00  # C1A ch+
    142       7    1   0.1300  2.078864e+01  2.073349e+01  1.483492e+00  # H1 ch+
    143       7    5   0.0600  1.876227e+01  2.196417e+01  3.496634e+00  # HC ch+
    144       7    6   0.2750  1.904842e+01  2.157087e+01  2.500926e+00  # COL ch+
    145       7    5   0.0600  1.832126e+01  2.077447e+01  2.219414e+00  # HC ch+
    146       7    7   0.4180  1.910802e+01  2.350159e+01  1.995119e+00  # HO ch+
    147       7    8  -0.6830  1.898857e+01  2.259842e+01  1.513945e+00  # OH ch+
    148       8    1   0.1300  3.533313e+00  1.619186e+01  7.402050e+00  # H1 ch+
    149       8    2  -0.1700  3.406334e+00  1.652961e+01  6.356161e+00  # C1 ch+
    150       8    1   0.1300  2.358254e+00  1.637807e+01  6.034529e+00  # H1 ch+
    151       8    1   0.1300  3.730113e+00  1.758346e+01  6.247449e+00  # H1 ch+
    152       8    1   0.1300  4.220151e+00  1.405210e+01  6.867836e+00  # H1 ch+
    153       8    2  -0.1700  4.062253e+00  1.420685e+01  5.783976e+00  # C1 ch+
    154       8    1   0.1300  4.797023e+00  1.361074e+01  5.209937e+00  # H1 ch+
    155       8    1   0.1300  3.019293e+00  1.395858e+01  5.511708e+00  # H1 ch+
    156       8    3   0.1200  4.297726e+00  1.567235e+01  5.488529e+00  # N4 ch+
    157       8    1   0.1300  5.852049e+00  1.584346e+01  6.918934e+00  # H1 ch+
    158       8    2  -0.1700  5.743176e+00  1.597285e+01  5.824468e+00  # C1 ch+
    159       8    1   0.1300  6.357190e+00  1.522486e+01  5.293251e+00  # H1 ch+
    160       8    1   0.1300  5.978692e+00  1.701140e+01  5.536665e+00  # H1 ch+
    161       8    1   0.1300  2.918924e+00  1.557544e+01  3.909686e+00  # H1 ch+
    162       8    4  -0.1700  3.977602e+00  1.589887e+01  4.005813e+00  # C1A ch+
    163       8    1   0.1300  4.637610e+00  1.521607e+01  3.413906e+00  # H1 ch+
    164       8    5   0.0600  3.741067e+00  1.809795e+01  4.165202e+00  # HC ch+
    165       8    6   0.2750  4.126131e+00  1.733769e+01  3.456870e+00  # COL ch+
    166       8    5   0.0600  3.477711e+00  1.734684e+01  2.550382e+00  # HC ch+
    167       8    7   0.4180  5.882485e+00  1.822481e+01  3.796450e+00  # HO ch+
    168       8    8  -0.6830  5.458646e+00  1.764840e+01  3.055081e+00  # OH ch+
    169       9    1   0.1300  2.231043e+01  2.006270e+01  1.096715e+01  # H1 ch+
    170       9    2  -0.1700  2.158078e+01  1.935520e+01  1.052995e+01  # C1 ch+
    171       9    1   0.1300  2.195498e+01  1.831815e+01  1.062692e+01  # H1 ch+
    172       9    1   0.1300  2.058524e+01  1.948722e+01  1.099762e+01  # H1 ch+
    173       9    1   0.1300  2.342160e+01  2.049441e+01  8.988601e+00  # H1 ch+
    174       9    2  -0.1700  2.282650e+01  1.975361e+01  8.422280e+00  # C1 ch+
    175       9    1   0.1300  2.270846e+01  2.009052e+01  7.374751e+00  # H1 ch+
    176       9    1   0.1300  2.329778e+01  1.875513e+01  8.489128e+00  # H1 ch+
    177       9    3   0.1200  2.145588e+01  1.967916e+01  9.059677e+00  # N4 ch+
    178       9    1   0.1300  2.141610e+01  2.174738e+01  9.520302e+00  # H1 ch+
    179       9    2  -0.1700  2.081578e+01  2.104330e+01  8.911747e+00  # C1 ch+
    180       9    1   0.1300  2.088419e+01  2.131462e+01  7.843852e+00  # H1 ch+
    181       9    1   0.1300  1.977816e+01  2.100425e+01  9.284210e+00  # H1 ch+
    182       9    1   0.1300  2.129483e+01  1.766938e+01  8.478245e+00  # H1 ch+
    183       9    4  -0.1700  2.067181e+01  1.857820e+01  8.334876e+00  # C1A ch+
    184       9    1   0.1300  2.064149e+01  1.884946e+01  7.249671e+00  # H1 ch+
    185       9    5   0.0600  1.914941e+01  1.830926e+01  9.924613e+00  # HC ch+
    186       9    6   0.2750  1.923040e+01  1.829353e+01  8.819537e+00  # COL ch+
    187       9    5   0.0600  1.903096e+01  1.725385e+01  8.470913e+00  # HC ch+
    188       9    7   0.4180  1.801599e+01  1.987511e+01  8.923999e+00  # HO ch+
    189       9    8  -0.6830  1.826076e+01  1.915585e+01  8.228107e+00  # OH ch+
    190      10    1   0.1300  9.768731e+00  1.338281e+01  1.997641e+01  # H1 ch+
    191      10    2  -0.1700  9.911531e+00  1.445751e+01  2.019714e+01  # C1 ch+
    192      10    1   0.1300  9.808545e+00  1.463711e+01  2.128435e+01  # H1 ch+
    193      10    1   0.1300  1.088676e+01  1.480723e+01  1.980489e+01  # H1 ch+
    194      10    1   0.1300  7.507847e+00  1.354113e+01  1.953027e+01  # H1 ch+
    195      10    2  -0.1700  7.467865e+00  1.461299e+01  1.980071e+01  # C1 ch+
    196      10    1   0.1300  6.701584e+00  1.512513e+01  1.918810e+01  # H1 ch+
    197      10    1   0.1300  7.279355e+00  1.472555e+01  2.088483e+01  # H1 ch+
    198      10    3   0.1200  8.818279e+00  1.521874e+01  1.948469e+01  # N4 ch+
    199      10    1   0.1300  9.100824e+00  1.401240e+01  1.776534e+01  # H1 ch+
    200      10    2  -0.1700  9.029077e+00  1.509434e+01  1.799051e+01  # C1 ch+
    201      10    1   0.1300  8.134956e+00  1.552230e+01  1.750461e+01  # H1 ch+
    202      10    1   0.1300  9.964123e+00  1.560683e+01  1.770776e+01  # H1 ch+
    203      10    1   0.1300  8.561995e+00  1.660199e+01  2.104167e+01  # H1 ch+
    204      10    4  -0.1700  8.788626e+00  1.667776e+01  1.995652e+01  # C1A ch+
    205      10    1   0.1300  7.941890e+00  1.718251e+01  1.942696e+01  # H1 ch+
    206      10    5   0.0600  1.099008e+01  1.694110e+01  1.999590e+01  # HC ch+
    207      10    6   0.2750  1.007339e+01  1.751663e+01  1.975830e+01  # COL ch+
    208      10    5   0.0600  9.974959e+00  1.833797e+01  2.050528e+01  # HC ch+
    209      10    7   0.4180  1.082604e+01  1.753726e+01  1.790893e+01  # HO ch+
    210      10    8  -0.6830  1.016467e+01  1.810213e+01  1.846122e+01  # OH ch+
    211      11    1   0.1300  6.048689e+00  1.871146e+01  1.114257e+01  # H1 ch+
    212      11    2  -0.1700  5.564713e+00  1.820891e+01  1.200123e+01  # C1 ch+
    213      11    1   0.1300  4.682398e+00  1.763675e+01  1.165620e+01  # H1 ch+
    214      11    1   0.1300  6.294227e+00  1.757120e+01  1.253825e+01  # H1 ch+
    215      11    1   0.1300  4.913945e+00  2.070940e+01  1.137978e+01  # H1 ch+
    216      11    2  -0.1700  4.285202e+00  2.032419e+01  1.220436e+01  # C1 ch+
    217      11    1   0.1300  4.039877e+00  2.114637e+01  1.290335e+01  # H1 ch+
    218      11    1   0.1300  3.378932e+00  1.983797e+01  1.179719e+01  # H1 ch+
    219      11    3   0.1200  5.091436e+00  1.928383e+01  1.295139e+01  # N4 ch+
    220      11    1   0.1300  6.919449e+00  2.032234e+01  1.268469e+01  # H1 ch+
    221      11    2  -0.1700  6.298580e+00  1.998511e+01  1.353748e+01  # C1 ch+
    222      11    1   0.1300  5.920675e+00  2.085819e+01  1.409749e+01  # H1 ch+
    223      11    1   0.1300  6.864614e+00  1.927753e+01  1.416664e+01  # H1 ch+
    224      11    1   0.1300  3.322404e+00  1.827175e+01  1.345083e+01  # H1 ch+
    225      11    4  -0.1700  4.179226e+00  1.868180e+01  1.402734e+01  # C1A ch+
    226      11    1   0.1300  3.830415e+00  1.952288e+01  1.467779e+01  # H1 ch+
    227      11    5   0.0600  5.393657e+00  1.685435e+01  1.434813e+01  # HC ch+
    228      11    6   0.2750  4.773284e+00  1.756964e+01  1.492389e+01  # COL ch+
    229      11    5   0.0600  3.878056e+00  1.702567e+01  1.530457e+01  # HC ch+
    230      11    7   0.4180  6.499573e+00  1.800569e+01  1.582770e+01  # HO ch+
    231      11    8  -0.6830  5.494795e+00  1.807926e+01  1.604340e+01  # OH ch+
    232      12    1   0.1300  4.899370e+00  2.251960e+01  6.131040e+00  # H1 ch+
    233      12    2  -0.1700  5.296530e+00  2.153705e+01  6.448760e+00  # C1 ch+
    234      12    1   0.1300  4.461946e+00  2.083556e+01  6.639207e+00  # H1 ch+
    235      12    1   0.1300  6.009682e+00  2.114597e+01  5.696622e+00  # H1 ch+
    236      12    1   0.1300  4.870275e+00  2.344746e+01  8.246206e+00  # H1 ch+
    237      12    2  -0.1700  5.185712e+00  2.250416e+01  8.730266e+00  # C1 ch+
    238      12    1   0.1300  5.794582e+00  2.272896e+01  9.626646e+00  # H1 ch+
    239      12    1   0.1300  4.301144e+00  2.188515e+01  8.970891e+00  # H1 ch+
    240      12    3   0.1200  6.046441e+00  2.174519e+01  7.743588e+00  # N4 ch+
    241      12    1   0.1300  6.919388e+00  2.350709e+01  6.953056e+00  # H1 ch+
    242      12    2  -0.1700  7.270883e+00  2.259252e+01  7.469261e+00  # C1 ch+
    243      12    1   0.1300  7.703989e+00  2.285574e+01  8.449993e+00  # H1 ch+
    244      12    1   0.1300  7.967723e+00  2.203233e+01  6.823119e+00  # H1 ch+
    245      12    1   0.1300  5.404793e+00  1.993073e+01  8.579783e+00  # H1 ch+
    246      12    4  -0.1700  6.394780e+00  2.039493e+01  8.382081e+00  # C1A ch+
    247      12    1   0.1300  6.913641e+00  2.060773e+01  9.350416e+00  # H1 ch+
    248      12    5   0.0600  6.965640e+00  1.939587e+01  6.486477e+00  # HC ch+
    249      12    6   0.2750  7.262912e+00  1.941826e+01  7.553777e+00  # COL ch+
    250      12    5   0.0600  7.041074e+00  1.842026e+01  7.997656e+00  # HC ch+
    251      12    7   0.4180  8.972558e+00  2.016150e+01  6.838382e+00  # HO ch+
    252      12    8  -0.6830  8.661494e+00  1.966378e+01  7.685160e+00  # OH ch+
    253      13    1   0.1300  1.253128e+01  1.427309e+00  1.197576e+01  # H1 ch+
    254      13    2  -0.1700  1.180150e+01  2.174065e+00  1.234161e+01  # C1 ch+
    255      13    1   0.1300  1.140505e+01  2.762802e+00  1.149244e+01  # H1 ch+
    256      13    1   0.1300  1.099712e+01  1.678435e+00  1.292004e+01  # H1 ch+
    257      13    1   0.1300  1.439386e+01  2.756581e+00  1.229130e+01  # H1 ch+
    258      13    2  -0.1700  1.379190e+01  3.631408e+00  1.260106e+01  # C1 ch+
    259      13    1   0.1300  1.435798e+01  4.233395e+00  1.333721e+01  # H1 ch+
    260      13    1   0.1300  1.349758e+01  4.224336e+00  1.171487e+01  # H1 ch+
    261      13    3   0.1200  1.253621e+01  3.113764e+00  1.326867e+01  # N4 ch+
    262      13    1   0.1300  1.353092e+01  1.463405e+00  1.415079e+01  # H1 ch+
    263      13    2  -0.1700  1.296510e+01  2.348064e+00  1.450246e+01  # C1 ch+
    264      13    1   0.1300  1.362899e+01  3.015864e+00  1.507865e+01  # H1 ch+
    265      13    1   0.1300  1.207182e+01  2.031312e+00  1.506691e+01  # H1 ch+
    266      13    1   0.1300  1.149005e+01  4.812262e+00  1.261761e+01  # H1 ch+
    267      13    4  -0.1700  1.166031e+01  4.327579e+00  1.360287e+01  # C1A ch+
    268      13    1   0.1300  1.226393e+01  5.004136e+00  1.425868e+01  # H1 ch+
    269      13    5   0.0600  9.778369e+00  3.180405e+00  1.384702e+01  # HC ch+
    270      13    6   0.2750  1.029758e+01  4.056723e+00  1.428347e+01  # COL ch+
    271      13    5   0.0600  9.697315e+00  4.967085e+00  1.405286e+01  # HC ch+
    272      13    7   0.4180  1.035318e+01  2.930638e+00  1.593148e+01  # HO ch+
    273      13    8  -0.6830  1.039474e+01  3.933939e+00  1.570088e+01  # OH ch+
    274      14    1   0.1300  7.777826e+00  6.872636e+00  2.350706e+01  # H1 ch+
    275      14    2  -0.1700  8.647350e+00  6.584520e+00  2.288658e+01  # C1 ch+
    276      14    1   0.1300  9.556006e+00  7.105693e+00  2.324380e+01  # H1 ch+
    277      14    1   0.1300  8.770662e+00  5.483613e+00  2.287994e+01  # H1 ch+
    278      14    1   0.1300  7.081803e+00  8.596474e+00  2.213606e+01  # H1 ch+
    279      14    2  -0.1700  7.949691e+00  8.489043e+00  2.145867e+01  # C1 ch+
    280      14    1   0.1300  7.654915e+00  8.760086e+00  2.042698e+01  # H1 ch+
    281      14    1   0.1300  8.796536e+00  9.099199e+00  2.182486e+01  # H1 ch+
    282      14    3   0.1200  8.367362e+00  7.034467e+00  2.147186e+01  # N4 ch+
    283      14    1   0.1300  6.375782e+00  6.330678e+00  2.164376e+01  # H1 ch+
    284      14    2  -0.1700  7.209522e+00  6.228500e+00  2.092204e+01  # C1 ch+
    285      14    1   0.1300  6.931088e+00  6.686107e+00  1.995676e+01  # H1 ch+
    286      14    1   0.1300  7.509101e+00  5.170757e+00  2.083076e+01  # H1 ch+
    287      14    1   0.1300  1.035333e+01  7.601515e+00  2.110091e+01  # H1 ch+
    288      14    4  -0.1700  9.631699e+00  6.912162e+00  2.061237e+01  # C1A ch+
    289      14    1   0.1300  9.378303e+00  7.290986e+00  1.959038e+01  # H1 ch+
    290      14    5   0.0600  1.027469e+01  4.959401e+00  2.144339e+01  # HC ch+
    291      14    6   0.2750  1.027085e+01  5.509332e+00  2.048133e+01  # COL ch+
    292      14    5   0.0600  1.132763e+01  5.721839e+00  2.019793e+01  # HC ch+
    293      14    7   0.4180  9.047470e+00  4.043611e+00  1.989645e+01  # HO ch+
    294      14    8  -0.6830  9.682397e+00  4.720636e+00  1.944922e+01  # OH ch+
    295      15    1   0.1300  1.642103e+01  1.521590e+01  1.455463e+01  # H1 ch+
    296      15    2  -0.1700  1.607453e+01  1.468931e+01  1.546387e+01  # C1 ch+
    297      15    1   0.1300  1.507958e+01  1.423918e+01  1.528407e+01  # H1 ch+
    298      15    1   0.1300  1.682271e+01  1.393820e+01  1.578528e+01  # H1 ch+
    299      15    1   0.1300  1.559890e+01  1.728666e+01  1.516434e+01  # H1 ch+
    300      15    2  -0.1700  1.511816e+01  1.689360e+01  1.607977e+01  # C1 ch+
    301      15    1   0.1300  1.512179e+01  1.767086e+01  1.686756e+01  # H1 ch+
    302      15    1   0.1300  1.409672e+01  1.653648e+01  1.585031e+01  # H1 ch+
    303      15    3   0.1200  1.593885e+01  1.571726e+01  1.656259e+01  # N4 ch+
    304      15    1   0.1300  1.777642e+01  1.659101e+01  1.597001e+01  # H1 ch+
    305      15    2  -0.1700  1.731478e+01  1.624223e+01  1.691431e+01  # C1 ch+
    306      15    1   0.1300  1.716625e+01  1.709523e+01  1.759916e+01  # H1 ch+
    307      15    1   0.1300  1.791566e+01  1.542974e+01  1.735669e+01  # H1 ch+
    308      15    1   0.1300  1.421064e+01  1.484336e+01  1.737055e+01  # H1 ch+
    309      15    4  -0.1700  1.521103e+01  1.511485e+01  1.777074e+01  # C1A ch+
    310      15    1   0.1300  1.510614e+01  1.592528e+01  1.853518e+01  # H1 ch+
    311      15    5   0.0600  1.624774e+01  1.315596e+01  1.769789e+01  # HC ch+
    312      15    6   0.2750  1.584903e+01  1.387493e+01  1.844094e+01  # COL ch+
    313      15    5   0.0600  1.499778e+01  1.338985e+01  1.897228e+01  # HC ch+
    314      15    7   0.4180  1.776546e+01  1.405800e+01  1.897092e+01  # HO ch+
    315      15    8  -0.6830  1.684399e+01  1.421039e+01  1.940588e+01  # OH ch+
    316      16    1   0.1300  3.435067e+00  8.677778e+00  1.949715e+01  # H1 ch+
    317      16    2  -0.1700  4.058141e+00  9.102425e+00  2.030680e+01  # C1 ch+
    318      16    1   0.1300  4.760605e+00  8.335417e+00  2.068512e+01  # H1 ch+
    319      16    1   0.1300  4.581433e+00  1.001348e+01  1.995554e+01  # H1 ch+
    320      16    1   0.1300  1.686049e+00  8.042818e+00  2.086589e+01  # H1 ch+
    321      16    2  -0.1700  2.217945e+00  8.344881e+00  2.178756e+01  # C1 ch+
    322      16    1   0.1300  1.488675e+00  8.695017e+00  2.254276e+01  # H1 ch+
    323      16    1   0.1300  2.837143e+00  7.508105e+00  2.216164e+01  # H1 ch+
    324      16    3   0.1200  3.133714e+00  9.496941e+00  2.143466e+01  # N4 ch+
    325      16    1   0.1300  1.773680e+00  1.031665e+01  2.003121e+01  # H1 ch+
    326      16    2  -0.1700  2.258436e+00  1.064254e+01  2.097209e+01  # C1 ch+
    327      16    1   0.1300  1.495866e+00  1.079874e+01  2.175490e+01  # H1 ch+
    328      16    1   0.1300  2.884160e+00  1.153294e+01  2.079165e+01  # H1 ch+
    329      16    1   0.1300  4.468875e+00  8.895865e+00  2.293775e+01  # H1 ch+
    330      16    4  -0.1700  3.941811e+00  9.842560e+00  2.269154e+01  # C1A ch+
    331      16    1   0.1300  3.210009e+00  1.009036e+01  2.350101e+01  # H1 ch+
    332      16    5   0.0600  5.536921e+00  1.095700e+01  2.162808e+01  # HC ch+
    333      16    6   0.2750  4.973466e+00  1.099027e+01  2.258171e+01  # COL ch+
    334      16    5   0.0600  5.686771e+00  1.078990e+01  2.341435e+01  # HC ch+
    335      16    7   0.4180  4.282043e+00  1.271997e+01  2.186256e+01  # HO ch+
    336      16    8  -0.6830  4.399812e+00  1.227966e+01  2.278656e+01  # OH ch+
    337      17    1   0.1300  1.742671e+01  5.588097e+00  6.719702e+00  # H1 ch+
    338      17    2  -0.1700  1.832562e+01  6.226802e+00  6.809686e+00  # C1 ch+
    339      17    1   0.1300  1.853600e+01  6.435382e+00  7.876044e+00  # H1 ch+