LAMMPS (29 Oct 2020)
Reading data file ...
  orthogonal box = (0.0000000 0.0000000 0.0000000) to (25.000000 25.000000 25.000000)
  1 by 1 by 2 MPI processor grid
  reading atoms ...
  1280 atoms
  scanning bonds ...
  4 = max bonds/atom
  scanning angles ...
  6 = max angles/atom
  scanning dihedrals ...
  18 = max dihedrals/atom
  reading bonds ...
  1140 bonds
  reading angles ...
  1020 angles
  reading dihedrals ...
  1100 dihedrals
Finding 1-2 1-3 1-4 neighbors ...
  special bond factors lj:    0.0      0.0      0.5     
  special bond factors coul:  0.0      0.0      0.5     
     5 = max # of 1-2 neighbors
    16 = max # of 1-3 neighbors
    22 = max # of 1-4 neighbors
    30 = max # of special neighbors
  special bonds CPU = 0.001 seconds
  read_data CPU = 0.008 seconds
960 atoms in group ATOMS
320 atoms in group CORES
320 atoms in group DRUDES
400 atoms in group WATER
560 atoms in group IL
Finding SHAKE clusters ...
      20 = # of size 2 clusters
      40 = # of size 3 clusters
      80 = # of size 4 clusters
       0 = # of frozen angles
  find clusters CPU = 0.000 seconds
  create bodies CPU = 0.000 seconds
  100 rigid bodies with 400 atoms
  0.83209871 = max distance from body owner to body atom
PPPM initialization ...
  using 12-bit tables for long-range coulomb (../kspace.cpp:328)
  G vector (1/distance) = 0.27312384
  grid = 25 25 25
  stencil order = 5
  estimated absolute RMS force accuracy = 0.0035535915
  estimated relative force accuracy = 1.0701535e-05
  using double precision FFTW3
  3d grid and FFT values/proc = 20480 8125
Rebuild special list taking Drude particles into account
Old max number of 1-2 to 1-4 neighbors: 27
New max number of 1-2 to 1-4 neighbors: 27 (+0)
Neighbor list info ...
  update every 1 steps, delay 0 steps, check yes
  max neighbors/atom: 2000, page size: 100000
  master list distance cutoff = 14
  ghost atom cutoff = 14
  binsize = 7, bins = 4 4 4
  5 neighbor lists, perpetual/occasional/extra = 5 0 0
  (1) pair lj/cut/coul/long, perpetual, skip from (5)
      attributes: half, newton on
      pair build: skip
      stencil: none
      bin: none
  (2) pair coul/long/cs, perpetual, skip from (5)
      attributes: half, newton on
      pair build: skip
      stencil: none
      bin: none
  (3) pair thole, perpetual, skip from (5)
      attributes: half, newton on
      pair build: skip
      stencil: none
      bin: none
  (4) pair coul/tt, perpetual, skip from (5)
      attributes: half, newton on
      pair build: skip
      stencil: none
      bin: none
  (5) neighbor class addition, perpetual
      attributes: half, newton on
      pair build: half/bin/newton
      stencil: half/bin/3d/newton
      bin: standard
Setting up Verlet run ...
  Unit style    : real
  Current step  : 0
  Time step     : 1.0
Per MPI rank memory allocation (min/avg/max) = 31.17 | 31.34 | 31.52 Mbytes
Step CPU TotEng c_TDRUDE[1] c_TDRUDE[2] Press PotEng E_vdwl v_elec Density v_vMax v_invVis 
       0            0    1109.4069    311.32811    10.787961     8971.199    499.00362   -86.213796    15.225032   0.53836957 8.2282242e-05    4826.9761 
     100     1.403809   -353.70519    584.06506   0.18607463    4416.8774   -1479.7209    29.604176   -2236.0404   0.53836957 -0.00022829339   -13392.522 
     200     2.779124   -798.40088    511.10822   0.16761847   -1725.9737   -1783.7681    89.898298   -2449.4317   0.53836957 0.00023960642    14056.185 
     300     4.220072   -1115.4942    452.18463   0.26019154   -420.10663   -1987.4783    83.659226   -2638.6204   0.53836957 0.00019435387    11401.506 
     400      5.60982   -1330.9083    442.81379   0.22906944   -19.889083   -2184.7379    124.69667   -2823.0373   0.53836957 5.3677848e-05    3148.9381 
     500     7.016273   -1458.3398     409.7057   0.15172765   -2843.3756   -2248.2293    89.204135   -2863.7875   0.53836957 0.00024418953    14325.047 
     600     8.443023   -1510.2997    394.55149   0.16572554   -1015.7989   -2270.9915    158.35737   -3005.8776   0.53836957 0.00040066318    23504.362 
     700     9.863469   -1506.8006    411.92234    0.4962965   -2154.4978   -2301.2916    112.73193   -2984.7117   0.53836957 0.00037252488    21853.666 
     800     11.29347   -1513.9655    429.00321    0.2780752     393.9234   -2341.2018    200.55209   -3170.5537   0.53836957 0.00076035221     44605.03 
     900    12.763301   -1515.2839    435.53762    4.1646572   -2002.7042   -2358.7946    195.35275   -3202.5808   0.53836957 0.00081146049    47603.229 
    1000    14.236059   -1545.7756    439.04095   0.34900542    411.36842   -2392.3998     203.9573   -3253.2788   0.53836957 0.0004432558        26003 
    1100    15.677515    -1547.289    447.01119    0.6732588   -1661.6528   -2409.5856    169.75122   -3256.9948   0.53836957 0.00035890342    21054.582 
    1200    17.217823   -1565.0877     432.5512   0.68175074   -456.15195   -2399.5196    218.56236   -3336.7175   0.53836957 0.00012449641    7303.4128 
    1300    18.835531   -1577.1687    446.88773    0.3195524   -982.92541   -2438.8901    183.82195    -3353.422   0.53836957 0.00019952114    11704.637 
    1400    20.361507    -1566.335    445.79102     2.380093   -1744.7888   -2427.9077    177.84661    -3335.767   0.53836957 0.00027596573    16189.155 
    1500    21.900459   -1569.7324    451.22582    0.4262543   -19.766563   -2439.9176    218.95676   -3395.7408   0.53836957  9.70576e-05    5693.7524 
    1600     23.48091   -1585.2705     454.5718   0.45517366   -1272.7476   -2461.9333    229.83463   -3408.0742   0.53836957 -0.00020848649   -12230.577 
    1700    25.061962   -1592.9376      450.268    2.6888417    549.06218   -2463.4347    227.18262    -3424.514   0.53836957 -0.00037499246   -21998.424 
    1800    26.670307   -1618.1111    451.34125    0.4641567   -2355.3008   -2488.5549     222.6973    -3468.977   0.53836957 -6.603227e-05   -3873.6935 
    1900    28.295786   -1649.7277    446.24899   0.49384768   -921.69935   -2510.3841    215.68831   -3482.3598   0.53836957 -3.7698483e-05   -2211.5303 
    2000    29.930415   -1669.3591    440.58824    2.1826889   -465.77288   -2520.7148    256.12625   -3516.5688   0.53836957 -5.1039083e-05   -2994.1386 
    2100    31.539503   -1673.4994    458.59142   0.59442799   -852.79256   -2558.0429    193.26034   -3518.2122   0.53836957 0.00029532132    17324.625 
    2200    33.134001   -1668.0662    434.97476   0.71020697   -609.17977   -2507.2713     253.9478   -3542.5789   0.53836957 0.00020773162    12186.293 
    2300    34.763732   -1661.8167    453.86482    1.5788591   -599.62851   -2538.1882    230.46512    -3556.884   0.53836957 0.00011243863    6596.0595 
    2400    36.412116     -1676.01    436.05734   0.74519209   -341.23045   -2517.2608     266.8773   -3545.9477   0.53836957 0.00025936209    15215.125 
    2500    38.071749   -1667.0831    460.86676   0.69310476   -1599.0656    -2556.208    230.53992   -3557.7202   0.53836957 0.00014615663    8574.0804 
    2600    39.806709   -1680.5472    443.01843    1.5605367    -652.1384   -2535.9938    225.06683   -3519.7201   0.53836957 0.00024651215    14461.301 
    2700     41.53013   -1655.6779    453.75617   0.83204761   -254.83158   -2531.1276    273.30088   -3540.3911   0.53836957 0.00017725099    10398.189 
    2800    43.284454   -1658.3692    461.40382   0.71925853    -1187.139   -2548.4529    197.75727   -3547.5881   0.53836957 -0.00012352195   -7246.2477 
    2900    45.050634   -1700.6135    438.76287    1.5067854   -1478.5452   -2547.8059    226.93732   -3552.1635   0.53836957 -9.0253138e-05   -5294.5778 
    3000    46.795943   -1745.8245    421.19019   0.96001863    261.59966   -2558.6462    267.86774   -3635.5976   0.53836957 -9.1915387e-05   -5392.0915 
    3100    48.520426   -1785.8354    412.91563    0.7101948    373.81039    -2582.445    265.39742   -3641.2574   0.53836957 0.00016603915    9740.4617 
    3200    50.489079    -1788.972    437.62561    1.3654444   -1980.4905   -2633.8458     239.9386   -3638.1093   0.53836957 0.00024289574    14249.149 
    3300       52.356   -1764.7608    436.48982    1.0252545    750.56027   -2607.1124    262.19899   -3675.3031   0.53836957 6.9891243e-05    4100.0749 
    3400    54.254833   -1757.8006    460.65058   0.71354886   -927.98897   -2646.4268    201.73593    -3584.818   0.53836957 8.5806117e-05    5033.6994 
    3500    56.216596   -1745.3861    439.68976    1.0033859   -680.03693   -2593.8849    206.28175    -3618.174   0.53836957 0.00030529989    17910.004 
    3600     58.17869   -1758.6847    435.38791    1.1422536   -3013.1294   -2599.0238    248.21472   -3694.6302   0.53836957 0.0002471392    14498.086 
    3700    60.077758   -1742.2168     453.1763   0.77099349    256.06681   -2616.4905    264.38953   -3641.9581   0.53836957 6.838428e-05     4011.671 
    3800    61.967527   -1714.9681    480.91458    1.0068717     113.2003   -2642.9348    280.88321   -3682.8648   0.53836957 0.00010779876    6323.8679 
    3900    63.827833   -1736.8236    446.87314    1.1400431   -380.69854   -2599.2994    244.04402   -3628.2269   0.53836957 0.00023249532    13639.022 
    4000    65.701274   -1780.1834    443.92332   0.89040024    -671.1173   -2636.7351    220.42534    -3621.202   0.53836957 0.00037034499    21725.786 
    4100    67.529025   -1784.0905    441.19444   0.89010374    -969.3512   -2635.3818    253.39814   -3679.7348   0.53836957 0.0005929174    34782.695 
    4200    69.415102   -1760.9963    429.94965    1.4552846   -555.83028   -2591.1641    287.72606   -3734.4836   0.53836957 0.00046334528    27181.522 
    4300    71.309357   -1771.8055    452.03868    0.8173336    575.92692   -2643.9376    291.61545   -3709.1748   0.53836957 0.00031791566    18650.091 
    4400    73.173797   -1775.1224    444.85801    0.8281367   -1834.6086   -2633.4164    211.63329   -3656.4146   0.53836957 0.0003237028    18989.585 
    4500    75.071577   -1776.0124    452.71224    1.3455813   -1035.3307   -2650.0149    230.68386   -3662.4828   0.53836957 0.00047129009    27647.593 
    4600    76.963237   -1748.0982    444.82056    0.8258401    464.74617   -2606.3536    219.97924   -3678.6308   0.53836957 0.00052841233    30998.592 
    4700    78.875434     -1738.43    451.79776   0.79213356   -1730.0792   -2610.0741    268.35768   -3718.0646   0.53836957 0.00046551345    27308.715 
    4800    80.807062    -1743.923    455.58901    1.1897956   -675.73492    -2623.247    183.35103   -3614.9087   0.53836957 0.00029608094    17369.186 
    4900    82.720361    -1744.288    442.65028    1.0135277   -1063.2214   -2598.5033    260.70319   -3701.2715   0.53836957 0.00024942976    14632.458 
    5000    84.606906   -1769.3368    446.80116   0.96929032    485.76166   -2631.5341    272.23087   -3693.0042   0.53836957 7.2294644e-05    4241.0672 
    5100    86.432236   -1823.5273    422.60209    1.0360269   -973.51366   -2639.1193    229.42489   -3705.4216   0.53836957 -1.2509564e-05   -733.85657 
    5200    88.270166   -1837.6937    415.39885   0.97177446   -1692.6831   -2639.3955    222.01138   -3673.9019   0.53836957 -1.4579065e-05   -855.26103 
    5300    90.091606    -1814.234    432.46629   0.89903528   -35.899779   -2648.7229    241.91149   -3723.6104   0.53836957 3.8224979e-05    2242.4165 
    5400    91.927228   -1812.1956     437.7299    1.1796137   -1729.2938   -2657.0848    220.18329   -3628.5482   0.53836957 2.0239135e-05    1187.3014 
    5500    93.765274   -1810.7226    442.58544   0.90780438   -642.85838    -2664.712    276.90703   -3761.1119   0.53836957 -9.2939993e-05   -5452.1985 
    5600    95.619927   -1782.8456    445.40977   0.76399419    224.62175    -2642.142    236.58115    -3673.643   0.53836957 0.00025522973    14972.706 
    5700    97.497863    -1792.805    449.40228     1.158274   -2111.9758   -2660.3683    189.18437   -3666.6465   0.53836957 0.00021687229    12722.518 
    5800    99.380066   -1788.1246    459.48241    1.0935584   -288.15751   -2674.8617    240.72174     -3737.47   0.53836957 0.00020966174    12299.522 
    5900    101.42982   -1815.3783    448.12033   0.85074515   -1036.0287   -2679.9824    208.78799   -3655.8803   0.53836957 -0.00010222894   -5997.1221 
    6000    103.44293    -1861.546    423.52232    1.0177242   -1268.0241   -2678.9185    230.67287   -3713.7977   0.53836957 -5.5195737e-05    -3237.983 
    6100    105.42266   -1865.9725    432.14379    1.0877272    94.618151   -2700.0063    264.61136   -3769.5594   0.53836957 1.4587975e-06    85.578377 
    6200    107.43475   -1843.3015    436.46822    1.0230929   -225.35122   -2685.6094    269.51993   -3720.5339   0.53836957 -4.8153258e-05   -2824.8455 
    6300    109.43146   -1842.1944    428.32136    0.9630196   -224.47082   -2668.7412    249.32586   -3731.0926   0.53836957 -4.1356812e-05   -2426.1413 
    6400    111.34793   -1828.7533    441.16411   0.98490726    481.59105   -2680.0853    259.67955   -3745.6701   0.53836957 -6.0503461e-05   -3549.3534 
    6500    113.30521   -1833.2928    446.73047     1.073554     -570.194   -2695.4304    274.41735   -3757.1201   0.53836957 -0.00019305017   -11325.026 
    6600      115.261   -1830.6707    447.08205    1.0241341   -709.41964    -2693.513    258.33575   -3753.4181   0.53836957  0.000168203    9867.4008 
    6700    117.21629   -1820.0057    451.25379    1.2100044    505.20391   -2691.1429    239.79254   -3733.2099   0.53836957 0.00036036183    21140.138 
    6800    119.17949   -1811.4295    445.74679   0.98576342   -889.78942   -2671.6227    195.69846   -3655.2322   0.53836957 0.00026931607    15799.062 
    6900    121.17343   -1809.4966    446.00417    1.0038508    256.54646    -2670.193    270.82152   -3736.9596   0.53836957 0.00027153435    15929.194 
    7000    123.16996   -1829.9733    437.06411    1.0789334    -960.3215   -2673.5664    233.95501   -3713.9985   0.53836957 0.00028844994    16921.524 
    7100    125.11848   -1810.8906    437.99951    1.0750307    164.39653   -2656.2447    234.60881   -3665.2095   0.53836957 5.5953432e-05    3282.4321 
    7200    127.05694   -1799.6561    437.38233   0.92560159   -70.781983    -2643.633    217.76511    -3687.534   0.53836957 -0.00010084726   -5916.0679 
    7300    128.99476   -1805.7296    436.48038    1.1935234   -2493.7581   -2648.2235    227.44919   -3688.0291   0.53836957 -6.5890545e-05   -3865.3794 
    7400    130.92251   -1811.7791    433.52217    1.0233192   -669.12398   -2648.4085    204.50447   -3733.0555   0.53836957 5.4897974e-05    3220.5152 
    7500    132.85114   -1793.4994    471.78725   0.90194831    746.67992   -2703.7723    288.62004   -3793.6522   0.53836957 4.7247184e-05    2771.6919 
    7600    134.83159   -1755.0451    450.51925   0.97734773   -805.17758    -2624.394    250.21117   -3731.9476   0.53836957 -3.2610252e-05   -1913.0362 
    7700    136.89628   -1744.3704    457.05382    1.1531239   -363.51948   -2626.4963    248.71532   -3720.4246   0.53836957 4.1827295e-05    2453.7415 
    7800    138.96193    -1769.467    469.37308    1.0029277   -1818.4829   -2675.1828    220.83439   -3708.1802   0.53836957 0.00019415985    11390.124 
    7900    140.91524   -1816.5004    437.02849    1.2247152   -932.54444   -2660.1681    215.77966   -3685.4072   0.53836957 0.00034967184    20513.024 
    8000    142.87721    -1849.481     424.5569   0.98655422   -994.55778   -2668.7939     231.9495   -3714.3354   0.53836957 0.00027226351    15971.969 
    8100    144.75581    -1834.673    423.95226   0.92620712   -1132.1054   -2652.7628    240.51239   -3690.8731   0.53836957 0.0002924498    17156.171 
    8200    146.61235   -1812.5972    447.96401    1.2161518    451.07926   -2677.2484    262.79496   -3749.4858   0.53836957 0.00022025274    12920.828 
    8300     148.4629   -1831.2839     451.2949   0.96580569   -1012.6475   -2702.1169     241.5359   -3729.8262   0.53836957 0.00040874861    23978.683 
    8400    150.31314    -1818.625    437.13416   0.85788643    -1107.236    -2662.059    179.34547   -3685.9011   0.53836957 0.00017931028    10518.994 
    8500    152.18029   -1802.6178     449.2295    1.3120059   -1112.0986   -2669.8001    237.18815   -3736.5386   0.53836957 0.00026520028    15557.615 
    8600    154.02077    -1798.451    451.04221    1.1085093    528.49821   -2669.0714    224.82513   -3729.8901   0.53836957 0.00019251463     11293.61 
    8700    155.90635   -1809.7231    427.99873   0.75592704   -544.10712   -2635.4504    224.54278    -3677.239   0.53836957 -0.00014451031   -8477.5012 
    8800    157.81321   -1826.9295    429.90457    1.1001244    1115.8746   -2656.6589    242.96045   -3695.7288   0.53836957 -0.00030641408   -17975.366 
    8900    159.73133   -1831.7112    422.50906    1.0593806   -1527.1654   -2647.1462    216.42242   -3686.0979   0.53836957 -0.00052630932   -30875.222 
    9000    161.66282   -1819.5763     448.4512   0.89748351   -482.62086   -2684.8801    228.13035   -3696.1493   0.53836957 -0.00042906283   -25170.388 
    9100     163.5921   -1795.8876    461.53823    1.1819759    -644.3594   -2686.7582    208.98429   -3710.3559   0.53836957 -0.00030605335   -17954.204 
    9200    165.46437   -1810.2193    448.07683   0.83025367   -1160.3218   -2674.7199    282.79356   -3774.4332   0.53836957 -0.00024847821   -14576.637 
    9300    167.37347    -1823.802    446.42782   0.87955919     970.5975    -2685.171     225.1439   -3702.5563   0.53836957 0.00018623553    10925.254 
    9400    169.28774   -1815.5765    446.26567    1.2473212   -2809.0335   -2676.9984    239.09227   -3710.8215   0.53836957 9.6030077e-05    5633.4741 
    9500    171.17195   -1794.3071    449.79249    1.0149511    634.49593   -2662.2909    218.20228   -3707.0512   0.53836957 0.00013556257    7952.5944 
    9600    173.07158   -1791.1276    452.99046   0.90724129   -96.206637   -2665.1731    242.88902   -3709.9532   0.53836957 0.00011448917    6716.3521 
    9700    174.99378   -1831.9211    422.03989    1.0733978   -1939.6461   -2646.4785    222.16109   -3689.5351   0.53836957 3.306618e-05    1939.7825 
    9800    176.90814   -1882.8001    448.08854    1.1924724    -1265.353   -2747.6688    187.67048   -3699.3755   0.53836957 0.00022880973    13422.812 
    9900    178.85351   -1875.6765    436.24672   0.88375402     527.9573   -2717.4245    255.06198   -3726.4447   0.53836957 2.5928154e-05    1521.0399 
   10000    180.78527      -1873.1    466.30605    1.0051938   -827.36313   -2772.9059    208.75374   -3748.0324   0.53836957 -0.00023416808   -13737.153 
   10100    182.69715   -1851.1491    444.84665    1.0592811    1399.5486   -2709.6864    244.23985   -3712.0982   0.53836957 -0.00019783739   -11605.862 
   10200    184.60236   -1825.2608    458.00407   0.89140328   -1482.7356   -2708.9553    203.48585   -3738.6268   0.53836957 -0.00012712738   -7457.7551 
   10300    186.50846   -1813.9411     446.2327   0.92546569   -1346.0047   -2674.9909    187.27718   -3658.7599   0.53836957 -0.0001755937   -10300.966 
   10400    188.45738   -1829.0363      430.992    1.0055148    1429.9175   -2660.7715    258.07737   -3749.8482   0.53836957 6.7211895e-05    3942.8946 
   10500    190.38161   -1832.2416    463.18372   0.86958353   -1678.6399   -2725.8994    201.50973   -3719.1703   0.53836957 9.0579204e-05     5313.706 
   10600    192.30207   -1828.0142    451.88115    1.1045647   -979.60818   -2700.1096    189.93811   -3690.3325   0.53836957 3.4603283e-05    2029.9546 
   10700    194.24199   -1823.0634    447.36985   0.99793878   -317.94261   -2686.3612    250.06205   -3767.7127   0.53836957 -0.00013563867   -7957.0587 
   10800    196.45061   -1825.3732    448.68012    1.0045928   -426.02266    -2691.203    218.31451    -3741.623   0.53836957 -4.4037818e-05   -2583.4188 
   10900    198.42898   -1823.6136    459.85029   0.99239578   -419.02998   -2710.9869    204.40809   -3713.5175   0.53836957 -5.2603664e-05   -3085.9226 
   11000    200.38322   -1880.8532    425.64479    1.0557838     1473.003   -2702.3762    208.06785   -3713.6465   0.53836957 -0.00016287632    -9554.918 
   11100    202.30808   -1922.5578    425.23287    1.0404364   -246.71926   -2743.2255    209.06143   -3716.6437   0.53836957 -0.0001559836   -9150.5662 
   11200    204.23903   -1906.2161    444.84798    1.0821534   -698.99335   -2764.8444    223.38347   -3763.9757   0.53836957 -0.00025550466   -14988.834 
   11300    206.18164   -1887.5834    447.70749    1.2262148   -157.30526   -2751.8089    229.76938   -3779.5759   0.53836957 -2.7385045e-05   -1606.5065 
   11400    208.13716   -1876.3761    434.10858    1.0881171   -1566.6604   -2714.1974    226.94318    -3734.751   0.53836957 0.00029194487    17126.549 
   11500    210.08155   -1858.3367     439.8797   0.83313193    415.24636   -2707.0393    256.54415   -3772.9419   0.53836957 0.0006291439    36907.873 
   11600    211.99203   -1841.3131    444.88005    1.0750656   -245.30781   -2699.8851     216.3673   -3681.2586   0.53836957 0.00011705098    6866.6371 
   11700     213.9002   -1842.9891    444.70857    1.1283607    41.940037   -2701.3885    243.20639   -3715.1456   0.53836957 0.00026228238     15386.44 
   11800    215.86717    -1850.199    449.52479   0.96322836    -328.0419    -2717.642    277.78268   -3828.2601   0.53836957 -9.3843777e-06   -550.52178 
   11900    217.86966   -1880.2119    430.10175    1.1965184    239.73266   -2710.4132     259.0619   -3800.2954   0.53836957 -5.6338922e-05   -3305.0464 
   12000    219.90911   -1847.2718    444.13656    1.1480384    -386.9421   -2704.5023      214.448   -3740.2014   0.53836957 8.9957418e-05    5277.2298 
   12100     221.8672     -1827.77     450.0596   0.91388518   -1902.9605   -2696.1723    278.30362   -3790.2399   0.53836957 -5.811034e-05   -3408.9642 
   12200    223.81001   -1819.5948    463.51931   0.99234102    940.26125   -2714.0168    247.83311   -3777.9164   0.53836957 0.00017780041     10430.42 
   12300    225.76606   -1815.7372    467.88104    1.2203561   -692.36295   -2718.7843    239.25717   -3731.4898   0.53836957 0.00022913221     13441.73 
   12400    227.96351   -1859.3379    423.22511   0.89368713   -846.49246    -2675.995    217.30213    -3735.667   0.53836957 0.00015413932    9042.3741 
   12500     229.9823   -1882.2567    432.81025    0.8084745    307.68969   -2717.3088    240.01672   -3740.3965   0.53836957 -3.5784832e-05   -2099.2686 
   12600     232.0253   -1880.4191    422.19727     1.211988    115.05943   -2695.4534    253.56532   -3747.0555   0.53836957 -0.00012769491   -7491.0483 
   12700     234.0423    -1866.379    424.96711   0.89461914   -456.27459   -2686.3949    237.88414   -3723.4343   0.53836957 -7.5912615e-05   -4453.3105 
   12800    236.02017   -1849.4642      448.056   0.77749694   -1013.2782   -2713.8743    222.93421    -3712.895   0.53836957 0.00023782978    13951.961 
   12900    237.95897   -1854.0793    406.32905    1.2167957    -1194.752   -2638.4759    198.29982   -3693.7139   0.53836957 0.00016341751    9586.6662 
   13000    239.90145    -1837.775    437.77548    1.0553195   -802.88223   -2682.6335    238.64428   -3729.6866   0.53836957 0.00014839447    8705.3603 
   13100    241.81193   -1843.5707    456.31591   0.71387098   -1090.0612   -2723.8418    204.61152   -3713.2384   0.53836957 0.00012509185    7338.3434 
   13200    243.77181   -1839.1568    466.78389    1.1527574   -1019.8111   -2740.0246    250.60037   -3792.7578   0.53836957 0.00023703341    13905.243 
   13300    245.77066   -1865.0012    436.35492    1.2471693    557.58702   -2707.3044    236.16984   -3733.5801   0.53836957 -4.9287812e-05   -2891.4026 
   13400    247.81056   -1899.8375    431.75579   0.92467452   -1313.1223   -2733.0783    236.93317   -3733.4911   0.53836957 -0.00018210384   -10682.874 
   13500    249.78699   -1861.9936      437.012    1.1236135   -2332.0445   -2705.5139     198.8715   -3707.7196   0.53836957 -9.7112196e-05   -5696.9552 
   13600    251.76455   -1827.0887    448.87335    1.1734389   -1043.7891    -2693.462    184.20548   -3683.7942   0.53836957 -0.00022252279   -13053.997 
   13700    253.76592   -1821.4324    445.03949   0.81418366    758.46944   -2680.0629    291.79675   -3736.4893   0.53836957 -0.00023925241   -14035.418 
   13800    255.73417   -1850.7668    440.03484    1.0232803   -745.35225   -2699.9788    231.47722   -3726.1632   0.53836957 -0.00014766477   -8662.5533 
   13900    257.68486   -1867.2032    455.59899    1.0917927   -1219.7235   -2746.4935    217.21253   -3749.4729   0.53836957 -5.7141705e-05   -3352.1406 
   14000    259.60649   -1864.3369    437.05543    1.1346993     307.5456    -2707.907    224.97348   -3722.0799   0.53836957 1.6169683e-05    948.57248 
   14100    261.52756   -1835.1763    439.21109   0.87265935   -872.63503   -2682.6644    261.76159   -3737.8568   0.53836957 0.00021749598    12759.107 
   14200    263.49372   -1825.0067    450.50173    1.0481903   -1151.0103   -2694.3894    264.55106   -3727.3737   0.53836957 0.00046099582    27043.694 
   14300    265.45703   -1820.1103    454.69198    1.1735429    1097.0898   -2697.7018    231.69847   -3717.1936   0.53836957 0.00062009629    36377.107 
   14400    267.41132   -1845.4182    470.78271     0.966061   -2331.9584    -2753.816    254.90759   -3781.6793   0.53836957 0.00048993397    28741.311 
   14500    269.35781   -1884.3931    420.54735     1.040947   -524.04166   -2696.0697    255.53161   -3743.9212   0.53836957 0.00048408557    28398.223 
   14600    271.28326   -1891.4401    412.43564    1.0202965    272.00236    -2687.467     256.4958   -3731.5977   0.53836957 0.00021409035     12559.32 
   14700    273.19653   -1873.8487    429.67029    1.1060309   -3110.3071   -2703.1321    230.12928   -3727.1565   0.53836957 -8.3226801e-05   -4882.3873 
   14800    275.11714   -1888.8534     445.2476    1.0157543    1269.1825   -2748.0773     230.0554   -3722.5776   0.53836957 -2.0695985e-05   -1214.1019 
   14900    277.02265   -1884.9175    446.83154   0.99355677   -574.57188   -2747.1734    241.65745   -3721.0798   0.53836957 -0.00022089595   -12958.561 
   15000    278.92566   -1865.9273    431.68803    1.0537372   -1519.9666    -2699.105    267.28385   -3800.2494   0.53836957 -0.00024871647   -14590.614 
   15100    280.87492    -1852.505    449.07606    1.1426024    -1271.803   -2719.2296    183.73034   -3719.3747   0.53836957 -0.00011194396   -6567.0406 
   15200    283.00597   -1828.9768    453.08934   0.99820448    -554.8643   -2703.3353    228.24704   -3711.6586   0.53836957 -0.000365868    -21463.15 
   15300    284.90417   -1849.5388    449.35679   0.94310096   -352.84514   -2716.6142    203.14025   -3702.6925   0.53836957 -0.00058838957   -34517.075 
   15400    286.83246   -1924.0974    437.96278    1.2044613   -227.80136   -2769.5058    261.94722   -3813.3267   0.53836957 -0.00066164054   -38814.245 
   15500    288.79758   -1964.0541    412.53864   0.98369335   -990.89727   -2760.1979    214.37969   -3780.1915   0.53836957 -0.00027724072   -16263.951 
   15600    290.78518   -1943.2515    425.69726   0.85975502     428.8783   -2764.6416    257.65586   -3791.9534   0.53836957 -0.00027436204   -16095.077 
   15700    292.76794   -1923.3327    400.43112    1.1946907    -346.4658   -2696.3943    199.54185   -3716.9969   0.53836957 -0.00025214136   -14791.531 
   15800    294.70082   -1886.9679    422.56657   0.89100794   -205.81877   -2702.3531    229.09894   -3736.1031   0.53836957 -0.00038709627   -22708.478 
   15900    296.61428   -1850.5777    452.12964   0.89058124      231.087   -2722.9476    201.68322   -3714.1089   0.53836957 -0.00029380465   -17235.651 
   16000    298.56062   -1853.3038     463.7009     1.128856    367.45061    -2748.206     220.4816    -3772.741   0.53836957 -0.0001046406   -6138.5986 
   16100    300.48609   -1893.3776    427.71747    1.0171797    703.26163    -2718.812    248.29149   -3783.3248   0.53836957 4.1617765e-05    2441.4497 
   16200    302.48245   -1900.6262    438.63559   0.89809689   -647.02932   -2746.9927    234.92986   -3786.5582   0.53836957 2.5493728e-05     1495.555 
   16300    304.48623   -1867.3042    450.90677    1.2549237   -1272.3732   -2737.6648    262.59666   -3836.5821   0.53836957 7.1383301e-05    4187.6045 
   16400    306.45538   -1856.2415    442.30715    0.9470745   -545.86949   -2709.7319    212.94304   -3762.5741   0.53836957 0.00016010184     9392.157 
   16500    308.45376   -1844.0125     450.6644   0.94306416    348.80175   -2713.6084    228.83429   -3761.2253   0.53836957 9.6800348e-05    5678.6611 
