LAMMPS (29 Oct 2020)
Reading data file ...
  orthogonal box = (0.0000000 0.0000000 0.0000000) to (25.000000 25.000000 25.000000)
  1 by 1 by 2 MPI processor grid
  reading atoms ...
  1280 atoms
  scanning bonds ...
  4 = max bonds/atom
  scanning angles ...
  6 = max angles/atom
  scanning dihedrals ...
  18 = max dihedrals/atom
  reading bonds ...
  1140 bonds
  reading angles ...
  1020 angles
  reading dihedrals ...
  1100 dihedrals
Finding 1-2 1-3 1-4 neighbors ...
  special bond factors lj:    0.0      0.0      0.5     
  special bond factors coul:  0.0      0.0      0.5     
     5 = max # of 1-2 neighbors
    16 = max # of 1-3 neighbors
    22 = max # of 1-4 neighbors
    30 = max # of special neighbors
  special bonds CPU = 0.001 seconds
  read_data CPU = 0.008 seconds
960 atoms in group ATOMS
320 atoms in group CORES
320 atoms in group DRUDES
400 atoms in group WATER
560 atoms in group IL
Finding SHAKE clusters ...
      20 = # of size 2 clusters
      40 = # of size 3 clusters
      80 = # of size 4 clusters
       0 = # of frozen angles
  find clusters CPU = 0.000 seconds
  create bodies CPU = 0.000 seconds
  100 rigid bodies with 400 atoms
  0.83209871 = max distance from body owner to body atom
WARNING: Temperature for fix modify is not for group all (../fix_rigid_nh_small.cpp:1336)
WARNING: Temperature for fix modify is not for group all (../fix_nh.cpp:1428)
PPPM initialization ...
  using 12-bit tables for long-range coulomb (../kspace.cpp:328)
  G vector (1/distance) = 0.27312384
  grid = 25 25 25
  stencil order = 5
  estimated absolute RMS force accuracy = 0.0035535915
  estimated relative force accuracy = 1.0701535e-05
  using double precision FFTW3
  3d grid and FFT values/proc = 20480 8125
Rebuild special list taking Drude particles into account
Old max number of 1-2 to 1-4 neighbors: 27
New max number of 1-2 to 1-4 neighbors: 27 (+0)
Neighbor list info ...
  update every 1 steps, delay 0 steps, check yes
  max neighbors/atom: 2000, page size: 100000
  master list distance cutoff = 14
  ghost atom cutoff = 14
  binsize = 7, bins = 4 4 4
  5 neighbor lists, perpetual/occasional/extra = 5 0 0
  (1) pair lj/cut/coul/long, perpetual, skip from (5)
      attributes: half, newton on
      pair build: skip
      stencil: none
      bin: none
  (2) pair coul/long/cs, perpetual, skip from (5)
      attributes: half, newton on
      pair build: skip
      stencil: none
      bin: none
  (3) pair thole, perpetual, skip from (5)
      attributes: half, newton on
      pair build: skip
      stencil: none
      bin: none
  (4) pair coul/tt, perpetual, skip from (5)
      attributes: half, newton on
      pair build: skip
      stencil: none
      bin: none
  (5) neighbor class addition, perpetual
      attributes: half, newton on
      pair build: half/bin/newton
      stencil: half/bin/3d/newton
      bin: standard
Setting up Verlet run ...
  Unit style    : real
  Current step  : 0
  Time step     : 1.0
Per MPI rank memory allocation (min/avg/max) = 31.17 | 31.34 | 31.52 Mbytes
Step CPU TotEng c_TDRUDE[1] c_TDRUDE[2] Press PotEng E_vdwl Volume Density 
       0            0    1109.4069    311.32811    10.787961    8968.7729    499.00362   -86.213796        15625   0.53836957 
    1000    14.898206   -2128.3766    300.66351   0.13990607    263.35644   -2708.0662    191.13521        15625   0.53836957 
    2000     34.17738   -2314.4046    278.90037   0.16176994   -902.49632   -2852.1646    217.15736        15625   0.53836957 
    3000    52.080968   -2330.8978    281.06799    1.1710186    272.82254   -2873.7988    258.45737        15625   0.53836957 
