ITEM: TIMESTEP
0
ITEM: NUMBER OF ATOMS
960
ITEM: BOX BOUNDS pp pp pp
0.0000000000000000e+00 2.5000000000000000e+01
0.0000000000000000e+00 2.5000000000000000e+01
0.0000000000000000e+00 2.5000000000000000e+01
ITEM: ATOMS element xu yu zu
H 14.5392 10.6265 19.9263
C 15.5498 10.3991 20.2655
H 15.7774 9.34883 20.0832
H 16.2707 11.0666 19.7935
H 13.5223 10.258 21.9701
C 14.4476 9.92264 22.4385
H 14.4481 10.1961 23.4937
H 14.5777 8.85064 22.2901
N 15.5942 10.6409 21.7574
H 14.5028 12.4258 21.5066
C 15.416 12.1228 22.0188
H 15.2969 12.2403 23.0958
H 16.2726 12.6658 21.6195
H 16.8477 9.02044 22.1402
C 16.8972 10.0886 22.3514
H 16.8617 10.2579 23.4276
H 18.2023 10.7873 20.7154
C 18.2277 10.6579 21.7974
H 18.9603 9.8862 22.0338
H 18.415 12.5877 21.8622
O 18.6267 11.8702 22.4397
H 7.87966 9.67845 11.0463
C 7.87758 8.81563 10.3803
H 8.76269 8.20476 10.5579
H 6.9538 8.24813 10.4928
H 8.92216 11.1125 9.56186
C 9.07129 10.3307 8.81712
H 9.02679 10.7602 7.81629
H 10.011 9.80986 9.0011
N 7.9383 9.33583 8.96183
H 6.51924 10.8186 9.43855
C 6.6502 10.0724 8.65489
H 6.79 10.5628 7.69153
H 5.8198 9.36636 8.66104
H 9.18417 7.80651 8.28883
C 8.21027 8.18708 7.98097
H 8.27789 8.62038 6.98308
H 6.85908 6.73869 8.95277
C 7.19113 7.02019 7.95347
H 7.75718 6.18903 7.53293
H 5.34051 7.51935 7.65424
O 6.0706 7.27745 7.10516
H 6.18789 10.9681 4.2863
C 7.19315 11.3014 4.54419
H 7.14163 12.1604 5.21313
H 7.77083 10.4803 4.96883
H 6.02239 12.2161 2.34668
C 6.98352 12.7047 2.50689
H 7.45228 12.922 1.54714
H 6.85395 13.6 3.11485
N 7.86996 11.7379 3.26448
H 7.0996 10.0459 2.27286
C 8.07293 10.5248 2.3795
H 8.41554 10.8942 1.41293
H 8.78001 9.84492 2.85473
H 8.86762 13.337 4.1542
C 9.1832 12.469 3.57527
H 9.60976 12.7899 2.62492
H 9.82843 11.0977 5.17877
C 10.2598 11.6883 4.37056
H 10.8786 12.4709 4.80967
H 10.7919 9.97943 3.62223
O 11.0871 10.8732 3.53833
H 14.9082 19.8699 2.32269
C 14.9429 20.2703 3.33588
H 14.3552 19.6426 4.00572
H 15.9751 20.378 3.66919
H 13.1149 21.1543 1.62898
C 12.9656 21.5886 2.61751
H 12.5853 22.6055 2.5209
H 12.3054 20.9559 3.2108
N 14.315 21.6454 3.30327
H 15.3514 22.0829 1.52168
C 15.1971 22.5672 2.48593
H 14.6433 23.4966 2.35298
H 16.1495 22.7042 2.99812
H 13.3898 21.4376 5.15927
C 14.0817 22.162 4.72961
H 13.5989 23.1358 4.64814
H 16.0051 21.4495 5.54269
C 15.3218 22.292 5.64966
H 14.9037 22.2693 6.65604
H 16.7845 23.3592 4.95324
O 16.0171 23.5283 5.47813
H 22.7635 12.8174 16.3493
C 22.8958 13.4777 15.4922
H 23.2966 14.4374 15.8186
H 23.5222 13.003 14.737
H 20.5548 13.3822 16.7362
C 20.5506 14.1459 15.9585
H 19.5588 14.2126 15.5113
H 20.8843 15.1001 16.3661
N 21.5309 13.7161 14.8867
H 21.0726 11.6705 15.0998
C 21.0194 12.414 14.3045
H 19.9808 12.5831 14.0199
H 21.6518 12.1194 13.4671
H 21.9128 15.712 14.4239
C 21.5953 14.8433 13.8471
H 20.5842 14.9959 13.4695
H 23.5061 14.2074 12.9458
C 22.5553 14.6484 12.6465
H 22.743 15.6629 12.295
H 22.3076 13.021 11.62
O 21.9691 13.9023 11.5783
H 13.88 16.5444 5.0963
C 12.8453 16.55 4.75356
H 12.2395 15.8996 5.38459
H 12.4596 17.5688 4.71861
H 14.5813 14.8536 3.68342
C 13.5777 14.6785 3.29586
H 13.634 14.3548 2.25655
H 13.0518 13.9594 3.92395
N 12.8289 15.9941 3.34747
H 14.5337 17.1364 2.86968
C 13.5518 16.96 2.43071
H 13.6572 16.4607 1.46758
H 12.9897 17.8921 2.37208
H 11.0318 14.9707 3.60606
C 11.3878 15.7182 2.89711
H 11.4362 15.2893 1.89619
H 10.5292 17.5616 3.75294
C 10.4062 16.917 2.88261
H 9.42288 16.45 2.93751
H 10.9737 18.4635 1.85805
O 10.4757 17.681 1.67725
H 21.9953 21.8621 5.38736
C 21.1106 21.5956 4.80912
H 20.7262 20.6302 5.13843
H 20.3602 22.3835 4.87347
H 23.5217 20.9705 3.89665
C 22.7442 20.5648 3.24935
H 23.0839 20.5729 2.21368
H 22.4599 19.5666 3.58246
N 21.5337 21.4683 3.36306
H 22.6912 23.2198 3.54128
C 21.9416 22.8344 2.85014
H 22.3843 22.6818 1.86584
H 21.0701 23.4889 2.83242
H 20.279 19.8496 2.97617
C 20.4107 20.8353 2.52994
H 20.7794 20.736 1.509
H 18.7667 21.958 3.48111
C 19.0467 21.57 2.50177
H 18.3363 20.7909 2.22523
H 19.0987 23.4314 1.9577
O 18.9892 22.603 1.51636
H 3.53148 16.1967 7.38692
C 3.40559 16.5304 6.35691
H 2.37375 16.3803 6.03929
H 3.72505 17.567 6.24915
H 4.2179 14.0543 6.85239
C 4.06209 14.2056 5.78425
H 4.78623 13.6195 5.21837
H 3.03416 13.9621 5.51559
N 4.29773 15.6723 5.48853
H 5.8504 15.8454 6.90234
C 5.74422 15.9729 5.82504
H 6.34957 15.2341 5.29984
H 5.97592 16.9992 5.54005
H 2.93817 15.5813 3.91143
C 3.97733 15.8969 4.00441
H 4.62154 15.2327 3.42831
H 3.74707 18.0861 4.15416
C 4.12445 17.3387 3.4562
H 3.49111 17.3467 2.56912
H 5.84953 18.18 3.7388
O 5.46078 17.6513 3.05881
H 22.2999 20.0525 10.9608
C 21.5808 19.3549 10.5313
H 21.9494 18.3335 10.6255
H 20.6008 19.4852 10.9903
H 23.4131 20.4839 8.98053
C 22.8277 19.7537 8.42173
H 22.7102 20.0856 7.39014
H 23.2911 18.7694 8.48817
N 21.4559 19.6792 9.05968
H 21.407 21.7367 9.51107
C 20.8156 21.0445 8.91178
H 20.8833 21.3113 7.8571
H 19.7904 21.0047 9.27983
H 21.2835 17.6859 8.47564
C 20.6727 18.5773 8.33281
H 20.6422 18.8429 7.27608
H 19.1507 18.309 9.90738
C 19.2299 18.2917 8.82041
H 19.0351 17.2753 8.47812
H 18.035 19.8192 8.86988
O 18.2595 19.1595 8.2316
H 9.7708 13.3984 19.9796
C 9.91254 14.4569 20.1977
H 9.81007 14.6345 21.2683
H 10.8715 14.8018 19.811
H 7.50728 13.5564 19.5341
C 7.4667 14.6125 19.8009
H 6.71284 15.1176 19.1971
H 7.28204 14.7239 20.8694
N 8.81828 15.2187 19.4847
H 9.09974 14.0288 17.7688
C 9.02916 15.0939 17.9894
H 8.14605 15.517 17.5106
H 9.95312 15.6008 17.7111
H 8.56611 16.6034 21.0219
C 8.78648 16.6787 19.9571
H 7.9625 17.1702 19.4398
H 10.9758 16.9501 19.9922
C 10.0745 17.5173 19.76
H 9.97699 18.321 20.4898
H 10.7746 17.5812 17.9519
O 10.168 18.0993 18.4584
H 6.04169 18.7042 11.155
C 5.56518 18.2079 12.0004
H 4.69545 17.6452 11.6613
H 6.28281 17.5812 12.5298
H 4.90499 20.7039 11.3915
C 4.28455 20.3251 12.2037
H 4.04348 21.1343 12.8931
H 3.39185 19.8449 11.803
N 5.09144 19.2838 12.9514
H 6.91003 20.3172 12.6976
C 6.29957 19.9858 13.5376
H 5.92536 20.8474 14.0905
H 6.85795 19.2859 14.1592
H 3.33798 18.2792 13.4613
C 4.17714 18.6829 14.0278
H 3.8389 19.5024 14.662
H 5.38398 16.8655 14.3571
C 4.77252 17.5677 14.9238
H 3.89656 17.0369 15.2967
H 6.42144 18.0114 15.8445
O 5.49984 18.0789 16.0423
H 4.90512 22.5054 6.13564
C 5.29593 21.5369 6.44758
H 4.47429 20.8459 6.63639
H 5.99853 21.1521 5.70839
H 4.87477 23.434 8.2531
C 5.185 22.5048 8.73111
H 5.78564 22.7257 9.61348
H 4.31376 21.894 8.96746
N 6.04644 21.7452 7.74359
H 6.92472 23.4932 6.96088
C 7.2716 22.5934 7.46898
H 7.69861 22.8525 8.43782
H 7.95952 22.0389 6.83072
H 5.42279 19.9392 8.57619
C 6.39431 20.3946 8.38444
H 6.90101 20.6026 9.32685
H 6.97027 19.3962 6.50312
C 7.26211 19.4164 7.55313
H 7.04566 18.4409 7.98848
H 8.94837 20.1228 6.90423
O 8.66306 19.6663 7.6809
H 12.5207 1.43811 11.9811
C 11.8008 2.17321 12.3408
H 11.4109 2.7541 11.505
H 11.0097 1.68619 12.911
H 14.3853 2.76904 12.2957
C 13.793 3.63183 12.6005
H 14.3497 4.22455 13.3264
H 13.5018 4.21589 11.7275
N 12.5362 3.11376 13.2687
H 13.5223 1.47682 14.1561
C 12.9656 2.3473 14.5032
H 13.6208 3.00758 15.0715
H 12.0823 2.03504 15.0603
H 11.4931 4.80345 12.6355
C 11.6613 4.32977 13.6027
H 12.2492 4.98767 14.2427
H 9.78646 3.19407 13.8538
C 10.2958 4.05717 14.2825
H 9.70972 4.94827 14.0576
H 10.3564 3.00866 15.9135
O 10.3945 3.9289 15.702
H 7.7904 6.86847 23.4981
C 8.64759 6.58406 22.8878
H 9.54257 7.09799 23.2385
H 8.76873 5.50084 22.88
H 7.09417 8.59494 22.1264
C 7.94929 8.49028 21.4586
H 7.65924 8.75611 20.4421
H 8.78446 9.0905 21.8196
N 8.36736 7.03447 21.4719
H 6.38842 6.32913 21.6328
C 7.20843 6.22805 20.9219
H 6.93454 6.68043 19.9687
H 7.50558 5.1832 20.8318
H 10.3402 7.58899 21.092
C 9.6323 6.91405 20.611
H 9.38447 7.28176 19.6153
H 10.2746 4.96797 21.4284
C 10.2728 5.50897 20.4821
H 11.3058 5.71745 20.2038
H 9.09684 4.09626 19.8617
O 9.67921 4.71723 19.4515
H 16.416 15.2083 14.5678
C 16.0747 14.6884 15.4629
H 15.0943 14.2458 15.2867
H 16.811 13.9499 15.7803
H 15.5921 17.2811 15.1774
C 15.1175 16.8946 16.0794
H 15.1217 17.6594 16.856
H 14.1113 16.5416 15.8536
N 15.9389 15.7173 16.5626
H 17.7694 16.5857 15.9843
C 17.3158 16.2428 16.9143
H 17.1681 17.0846 17.5907
H 17.9086 15.4393 17.3515
H 14.2288 14.8483 17.3778
C 15.2092 15.1161 17.7717
H 15.1087 15.9056 18.5166
H 16.2415 13.1672 17.7095
C 15.848 13.8731 18.4409
H 15.0154 13.3999 18.9613
H 17.6938 14.0699 19.0047
O 16.8486 14.2096 19.4037
H 3.44408 8.68392 19.5089
C 4.05897 9.10214 20.3058
H 4.75022 8.34676 20.6795
H 4.57325 9.99923 19.961
H 1.69363 8.04712 20.879
C 2.21712 8.34392 21.7878
H 1.49939 8.68987 22.5317
H 2.82831 7.52004 22.1563
N 3.13371 9.49694 21.4347
H 1.78103 10.3216 20.0455
C 2.25762 10.6432 20.9715
H 1.50533 10.7968 21.7452
H 2.8768 11.5225 20.7938
H 4.4593 8.91307 22.9333
C 3.9411 9.84159 22.6936
H 3.22782 10.0843 23.4813
H 5.52814 10.9575 21.6429
C 4.97551 10.9899 22.5819
H 5.67203 10.794 23.3971
H 4.2912 12.6857 21.9344
O 4.39922 12.2819 22.7819
H 17.4397 5.59734 6.721
C 18.3259 6.22563 6.81024
H 18.5329 6.4323 7.86027
H 19.1741 5.7643 6.30436
H 15.9449 7.34298 6.46549
C 16.7117 8.10223 6.61951
H 16.4746 8.99098 6.03469
H 16.8148 8.32293 7.68194
N 18.0252 7.53695 6.12009
H 17.1245 6.49724 4.52409
C 17.8708 7.28403 4.63412
H 17.5041 8.21114 4.19354
H 18.8263 6.96066 4.22124
H 19.0606 8.68783 7.51558
C 19.1163 8.56994 6.43341
H 18.8337 9.50096 5.94204
H 20.8109 7.16997 6.24295
C 20.5696 8.2119 6.03257
H 21.1813 8.84292 6.67738
H 20.8409 7.73129 4.17276
O 20.8689 8.53267 4.6728
H 6.30952 12.3991 14.3399
C 5.63539 12.0869 15.1375
H 6.20707 11.8189 16.0261
H 4.8966 12.8625 15.3392
H 6.48276 10.314 13.3556
C 5.88711 9.83156 14.1305
H 5.32536 9.00154 13.702
H 6.52665 9.51506 14.9545
N 4.90221 10.8548 14.6571
H 4.62016 11.7509 12.771
C 3.9963 11.242 13.5058
H 3.60628 10.3145 13.0866
H 3.216 11.9108 13.869
H 4.92129 9.92549 16.5225
C 4.13805 10.2 15.8159
H 3.65863 9.30301 15.4239
H 3.40946 12.0867 16.6977
C 3.07403 11.0614 16.5418
H 2.97022 10.5824 17.5154
H 1.70889 11.8504 15.4116
O 1.80178 11.0419 15.8919
H 18.6528 12.9418 7.57571
C 17.7208 13.3402 7.97674
H 17.2017 12.5713 8.54891
H 17.9108 14.2372 8.56623
H 17.7707 12.3019 5.53628
C 16.7552 12.578 5.82026
H 16.2059 12.9196 4.94291
H 16.2622 11.7416 6.31574
N 16.849 13.7266 6.80328
H 18.5143 14.5886 5.84229
C 17.4933 14.8898 6.07671
H 16.9273 15.0389 5.15724
H 17.4959 15.765 6.72635
H 15.08 13.1039 7.71247
C 15.4232 14.0418 7.27586
H 14.8323 14.2794 6.3913
H 16.0274 15.1574 9.08095
C 15.2541 15.1804 8.31318
H 14.2955 14.9637 8.78475
H 16.0192 16.894 7.82168
O 15.179 16.4752 7.71375
H 17.6995 7.86917 14.4025
C 17.9687 7.57437 15.4167
H 17.2461 6.85411 15.8004
H 18.9891 7.19223 15.4457
H 16.4738 9.72966 15.0213
C 16.584 9.52339 16.0859
H 16.61 10.4598 16.6431
H 15.7863 8.863 16.426
N 17.9074 8.81297 16.2818
H 18.8776 9.9208 14.7748
C 19.0002 9.76839 15.8471
H 18.83 10.7042 16.3795
H 19.9732 9.32483 16.0583
H 17.1329 7.80886 17.9359
C 18.0085 8.43547 17.7661
H 17.925 9.35675 18.3426
H 19.5807 6.91013 17.5022
C 19.2785 7.67267 18.2201
H 18.9697 7.17544 19.1396
H 20.9717 8.51719 17.7919
O 20.3727 8.54029 18.5224
H 9.56199 10.0211 18.5066
O 7.11048 8.40604 17.4354
C 9.07963 9.81084 17.552
C 7.58132 9.52247 17.7879
H 9.56802 8.96334 17.071
O 6.92561 10.4969 18.3446
H 9.18761 10.7019 16.9335
H 9.75558 20.5016 4.18382
O 7.86993 22.9935 4.19003
C 8.9407 20.9076 3.58444
C 8.91058 22.4439 3.7348
H 7.99533 20.467 3.90105
O 10.0008 23.044 3.35981
H 9.14335 20.6456 2.54598
H 16.7393 2.11462 17.5158
O 17.6802 4.7462 18.914
C 16.66 3.19097 17.3633
C 17.8762 3.89047 18.0076
H 15.7277 3.55651 17.7937
O 19.0271 3.51771 17.5323
H 16.6657 3.36493 16.2872
H 7.69243 15.3843 14.7907
O 9.83154 17.0482 13.2347
C 8.69594 15.2468 14.388
C 9.42116 16.6091 14.3443
H 8.63657 14.8054 13.3931
O 9.54602 17.1911 15.4998
H 9.22404 14.5728 15.0625
H 18.2212 8.90793 11.6812
O 20.7585 9.65 10.0148
C 19.0678 8.4014 11.2178
C 20.2665 9.37156 11.143
H 18.7885 8.05055 10.2243
O 20.6694 9.8209 12.2942
H 19.3228 7.5533 11.8532
H 12.3365 5.45061 5.11193
O 10.1052 7.6371 5.03207
C 11.2516 5.50395 5.02088
C 10.8568 6.85525 4.38693
H 10.7931 5.38596 6.0027
O 11.3534 7.0615 3.20359
H 10.943 4.68883 4.36633
H 12.857 20.163 17.8472
O 15.7373 20.3407 16.6481
C 13.69 20.8657 17.8304
C 14.5177 20.648 16.5454
H 14.3067 20.7276 18.7185
O 13.8524 20.8125 15.4409
H 13.2647 21.8693 17.8258
H 9.41174 17.4101 9.71913
O 11.2182 15.5808 7.94268
C 9.70284 16.3612 9.66289
C 11.0952 16.2508 9.0049
H 8.95882 15.8022 9.09545
O 12.0414 16.88 9.63593
H 9.75039 15.9851 10.6848
H 14.4024 17.4137 12.3736
O 17.4666 16.8439 12.6004
C 15.3101 17.6011 11.8
C 16.3512 16.5059 12.1166
H 15.7003 18.5901 12.0404
O 15.9633 15.2967 11.8397
H 15.0397 17.5547 10.7451
H 10.8551 6.39951 10.4634
O 11.1113 9.34123 11.4863
C 11.6261 7.16401 10.5592
C 11.2657 8.11155 11.7237
H 11.7171 7.71497 9.62312
O 11.1561 7.52786 12.8799
H 12.562 6.65134 10.7811
H 2.84376 14.0606 18.5505
O 4.10148 16.8841 18.0901
C 2.66255 14.9424 17.9358
C 3.99475 15.6875 17.7039
H 1.93471 15.5896 18.4252
O 4.90994 14.9833 17.1073
H 2.26749 14.5939 16.9815
H 20.1901 2.92533 7.65754
O 22.9618 1.50024 7.4287
C 21.2428 3.19877 7.58555
C 22.0112 2.0858 6.84075
H 21.6525 3.35348 8.5837
O 21.5896 1.85464 5.63313
H 21.2964 4.12547 7.01419
H 23.4849 6.4932 11.5987
O 21.9374 7.87475 13.9359
C 22.5167 6.9646 11.7678
C 22.6453 8.00676 12.8996
H 21.7762 6.20554 12.02
O 23.5005 8.95673 12.6636
H 22.2357 7.46429 10.8407
H 1.59079 15.7801 23.4939
O 1.49653 13.9605 20.9551
C 2.07122 14.8749 23.1226
C 2.07409 14.8931 21.5788
H 1.5463 13.9975 23.5005
O 2.69841 15.9043 21.0524
H 3.0973 14.8809 23.4904
H 11.0228 2.9132 23.4905
O 13.0426 3.88343 21.3123
C 11.6506 2.48032 22.7117
C 12.8663 3.39941 22.4642
H 11.0689 2.35035 21.7991
O 13.6202 3.5889 23.506
H 11.9927 1.5114 23.0754
H 13.453 21.2546 11.3101
O 15.4746 23.5031 12.0996
C 13.4568 22.1814 11.8838
C 14.5496 23.1215 11.3307
H 13.6291 21.9619 12.9375
O 14.402 23.4432 10.08
H 12.4779 22.6434 11.7558
H 3.1885 19.58 19.7864
O 1.49877 18.1843 22.0141
C 2.18132 19.1841 19.9166
C 1.79353 19.252 21.4096
H 2.13807 18.1587 19.5496
O 1.80555 20.449 21.9161
H 1.5095 19.8155 19.3352
H 21.1803 21.961 17.1676
O 20.3845 18.9588 16.8225
C 21.6736 20.9949 17.0612
C 20.7546 20.0343 16.2761
H 21.9087 20.5907 18.0458
O 20.4432 20.4415 15.0816
H 22.5925 21.1627 16.4995
H 12.0749 2.12801 3.65601
O 10.5896 3.83142 1.49779
C 11.8056 2.0522 2.60254
C 11.6888 3.46918 2.00063
H 10.867 1.50745 2.50035
O 12.7773 4.17613 2.07017
H 12.6073 1.50781 2.10361
H 10.5195 20.7255 15.9275
O 9.08698 23.5023 15.877
C 9.7273 21.243 16.4685
C 9.07002 22.2865 15.5396
H 10.139 21.7188 17.3586
O 8.5399 21.7908 14.4613
H 8.99022 20.493 16.7554
O 11.933 11.4955 18.0991
H 11.256 12.1666 18.0122
H 12.7214 11.9803 18.3437
M 11.9559 11.7326 18.1314
O 14.4815 7.79121 9.10043
H 14.3275 6.95412 8.6625
H 15.1242 7.59128 9.78108
M 14.5817 7.57851 9.15021
O 1.46793 7.93526 9.96599
H 1.67064 7.15857 9.44456
H 1.56657 7.64747 10.8736
M 1.52974 7.71692 10.0452
O 19.4437 14.657 23.5017
H 19.7425 14.9712 22.6483
H 18.5001 14.8177 23.4997
M 19.3115 14.7544 23.3262
O 15.1396 5.65582 21.0729
H 14.9204 6.3993 20.5113
H 15.422 4.97164 20.466
M 15.1526 5.66798 20.8333
O 18.633 18.7171 4.8864
H 18.242 19.4279 5.39439
H 18.0724 18.6371 4.11467
M 18.4378 18.8465 4.8323
O 3.79311 5.58242 13.8118
H 4.32574 6.17429 13.2805
H 4.29136 5.47291 14.6217
M 4.00456 5.68135 13.8689
O 22.0548 14.7807 19.3783
H 21.7977 14.1996 20.0942
H 22.9498 14.517 19.1647
M 22.1857 14.6074 19.4813
O 6.0313 7.1429 2.14027
H 6.33468 7.49155 2.9785
H 6.70827 7.39996 1.51428
M 6.23238 7.26713 2.1838
O 12.3725 7.33381 22.9483
H 12.1173 8.07166 23.5021
H 12.2558 6.56411 23.5053
M 12.2962 7.32728 23.1761
O 13.3582 18.5593 20.1289
H 14.0345 18.297 20.7534
H 13.47 17.9622 19.3892
M 13.5199 18.383 20.1053
O 8.53274 3.85849 5.62734
H 8.35324 3.66777 6.54801
H 8.01487 3.21505 5.14357
M 8.3897 3.68739 5.71695
O 11.8178 15.6452 23.2488
H 10.913 15.8264 23.5032
H 11.9243 14.7051 23.3939
M 11.654 15.4896 23.3307
O 8.51736 5.82331 2.86199
H 9.05644 6.03338 2.09944
H 8.42258 4.87123 2.83395
M 8.60849 5.67112 2.69983
O 19.7096 23.4965 14.0513
H 19.0617 23.0255 14.5753
H 20.5384 23.058 14.2436
M 19.7467 23.31 14.1982
O 8.85801 8.94523 13.6059
H 9.04381 8.46092 14.4104
H 9.44246 9.70246 13.6413
M 9.01599 9.00121 13.7782
O 12.6607 11.5552 11.9964
H 13.1776 12.2979 11.6841
H 11.7904 11.9194 12.1578
M 12.5882 11.7822 11.9654
O 9.59986 19.7125 12.5981
H 9.82909 19.6083 11.6746
H 10.2778 20.2894 12.95
M 9.78593 19.8095 12.4809
O 19.8331 12.0925 10.8739
H 19.1127 11.9381 11.485
H 19.4537 12.6451 10.1905
M 19.6075 12.1742 10.8591
O 12.5407 4.15088 18.2951
H 12.8973 3.50736 17.6827
H 13.3109 4.58143 18.6662
M 12.7719 4.1072 18.2456
O 13.3389 9.17085 13.1878
H 14.2505 9.44985 13.1018
H 13.261 8.88258 14.0973
M 13.5099 9.16895 13.3567
O 4.26896 7.62905 10.2566
H 4.28636 7.93023 11.165
H 4.365 6.6786 10.317
M 4.29223 7.49588 10.4553
O 8.82789 16.5688 5.7151
H 9.49872 15.886 5.70896
H 8.89662 16.9649 6.58376
M 8.97958 16.51 5.89201
O 17.7646 5.93367 21.8624
H 18.3242 6.70713 21.7926
H 18.3627 5.19421 21.7542
M 18.0021 5.94064 21.8259
O 16.1216 10.7007 11.5233
H 15.7866 11.4789 11.9686
H 16.6124 11.044 10.7766
M 16.1536 10.9307 11.4615
O 11.8078 13.5747 15.4201
H 12.3775 14.0459 14.8121
H 11.7278 14.1578 16.1749
M 11.9082 13.7909 15.4502
O 12.562 19.4541 7.21209
H 12.6565 18.5058 7.30138
H 11.8895 19.5661 6.54025
M 12.4435 19.2826 7.0926
O 1.61769 7.24832 14.0451
H 2.13551 7.88584 13.5535
H 1.48983 7.65333 14.9029
M 1.69767 7.46216 14.1202
O 14.1183 10.8157 8.94253
H 13.9991 10.4068 9.79975
H 14.9694 10.4979 8.64122
M 14.2684 10.6667 9.05656
O 1.80031 20.8533 3.17007
H 1.53806 20.4062 3.97475
H 2.70402 21.1252 3.33018
M 1.93188 20.8174 3.36796
O 16.8673 1.49515 12.6517
H 16.7924 2.04389 13.4324
H 17.1774 2.09013 11.969
M 16.9155 1.72974 12.6718
O 23.1699 2.93361 12.981
H 23.5001 2.56867 13.802
H 22.2555 2.653 12.9441
M 23.0501 2.8012 13.1418
O 13.51 11.4444 15.0645
H 14.0089 11.8766 14.3713
H 13.9144 11.749 15.8769
M 13.6952 11.5955 15.089
O 3.23542 4.86174 21.12
H 2.35773 4.60678 21.4044
H 3.12627 5.11653 20.2038
M 3.03301 4.86171 20.9904
O 17.5939 20.0082 23.5007
H 18.49 20.3349 23.4191
H 17.099 20.4985 22.8442
M 17.6762 20.1758 23.3493
O 7.32613 5.99761 13.1168
H 7.03157 6.79126 13.5635
H 6.9073 5.28283 13.5963
M 7.17981 6.01379 13.3068
O 3.08417 6.68771 6.12909
H 2.17236 6.87034 5.90222
H 3.03215 6.16048 6.92631
M 2.88648 6.61703 6.24608
O 10.6343 1.57176 6.55806
H 9.92147 1.50348 7.19328
H 10.2021 1.51763 5.70569
M 10.3994 1.54665 6.51352
O 7.89124 1.5357 10.3114
H 8.3984 1.49106 9.50084
H 8.54528 1.67464 10.9964
M 8.12941 1.55504 10.2857
O 20.8705 4.51595 14.7617
H 20.7626 4.68254 15.6981
H 21.7366 4.8665 14.5539
M 21.026 4.62202 14.9112
O 22.7101 17.4083 18.8489
H 23.1144 18.1304 18.3679
H 21.7759 17.6169 18.8544
M 22.6014 17.5992 18.7514
O 12.2427 15.2568 11.8451
H 11.6085 14.6616 12.245
H 13.0852 14.9939 12.2155
M 12.2854 15.0808 12.0031
O 14.0097 6.46971 16.7915
H 14.8209 6.42591 17.2977
H 14.1539 5.87528 16.0552
M 14.2057 6.3388 16.7443
O 6.41777 4.04395 18.5728
H 6.96707 3.45282 18.0579
H 5.92155 3.46632 19.1527
M 6.42865 3.80423 18.5861
O 15.0588 3.2899 7.00919
H 14.6239 2.46597 6.78964
H 15.5257 3.53513 6.21035
M 15.0654 3.17121 6.80031
O 21.2536 16.6711 4.23697
H 20.3505 16.5166 4.51397
H 21.173 17.1277 3.39955
M 21.0518 16.7331 4.12202
O 11.2119 21.1374 9.24785
H 10.2807 21.181 9.46498
H 11.5026 20.2983 9.6051
M 11.0806 20.9743 9.36566
O 20.5998 18.0413 13.7491
H 21.4436 18.1989 13.3254
H 20.0302 17.7355 13.0432
M 20.656 18.0109 13.5174
O 23.4238 10.6603 19.9785
H 23.1215 11.5542 19.8179
H 23.5 10.6 20.9307
M 23.3774 10.8313 20.1409
O 18.9184 7.53726 1.49622
H 17.9832 7.73911 1.52447
H 18.9576 6.58086 1.49484
M 18.7346 7.38249 1.50173
O 12.5578 3.78703 8.03761
H 12.6809 3.45915 8.92844
H 12.3944 4.72381 8.14711
M 12.5495 3.91192 8.24279
O 5.88297 13.9705 9.8044
H 6.79453 13.9554 9.51276
H 5.52527 14.7766 9.43218
M 5.99657 14.1327 9.66824
O 23.2869 6.0657 8.7077
H 23.505 5.33806 8.12528
H 22.5667 6.51757 8.26789
M 23.1839 6.00914 8.49803
O 11.9557 12.8164 9.27557
H 11.0591 13.1447 9.20792
H 12.3245 12.9438 8.40151
M 11.8475 12.9099 9.08242
O 13.3926 10.6688 5.02419
H 14.2607 10.5298 4.64561
H 13.5146 11.3846 5.64785
M 13.5957 10.7871 5.07446
O 3.25035 2.69749 10.532
H 3.91061 2.18777 11.0016
H 3.75423 3.25255 9.93685
M 3.48913 2.70679 10.5063
O 17.6628 4.65227 13.4659
H 18.1932 4.29042 14.1758
H 18.1638 5.40491 13.1516
M 17.8744 4.73242 13.547
O 18.8709 3.24519 4.11371
H 18.392 4.07126 4.18102
H 19.5929 3.43447 3.51445
M 18.9208 3.45345 4.0046
O 8.92285 20.836 21.7197
H 9.76932 21.2231 21.9431
H 8.89591 20.8536 20.763
M 9.09094 20.919 21.5693
O 18.7123 17.9752 22.0246
H 19.6134 17.6672 22.1217
H 18.1762 17.1923 22.1512
M 18.7872 17.7514 22.0705
O 3.11383 10.6813 6.97886
H 3.48161 10.5913 7.85799
H 3.87664 10.7093 6.40131
M 3.34572 10.6685 7.04071
O 8.73807 13.5077 7.57431
H 8.06838 13.977 7.07679
H 9.48204 13.4449 6.97531
M 8.7533 13.5911 7.3494
O 13.4128 8.24653 18.803
H 12.4707 8.16831 18.9529
H 13.4895 8.86031 18.0725
M 13.2353 8.35638 18.6839
O 19.8753 15.4557 10.3724
H 19.0082 15.4836 10.7769
H 20.4025 16.0616 10.893
M 19.8056 15.5857 10.5621
O 14.9978 2.07485 3.35257
H 14.9817 1.52791 4.13795
H 14.7085 2.93609 3.65394
M 14.9352 2.13931 3.57547
O 2.25702 15.6982 13.4565
H 1.49968 16.1592 13.8171
H 2.04771 14.7706 13.5657
M 2.05875 15.6025 13.5528
O 8.46349 12.4995 22.3699
H 8.15505 11.7732 21.8281
H 8.98075 12.0822 23.0588
M 8.50632 12.2649 22.4001
O 12.1032 22.9334 15.3959
H 11.8297 23.5005 16.1168
H 12.0846 23.5 14.6246
M 12.0433 23.1659 15.3855
O 20.014 3.99146 11.2924
H 19.7803 3.42311 12.0262
H 19.6284 3.56554 10.5267
M 19.8869 3.78753 11.2858
O 8.30772 12.5354 11.8514
H 7.35337 12.5075 11.783
H 8.5016 12.102 12.6825
M 8.15174 12.4408 12.0078
O 5.08739 14.8268 12.2916
H 6.037 14.8369 12.4115
H 4.74497 14.4827 13.1166
M 5.21193 14.7583 12.4854
O 18.7664 18.8058 19.04
H 19.3909 19.192 19.6541
H 18.1852 19.5283 18.8026
M 18.7753 19.0332 19.1173
O 4.48371 21.0454 21.7339
H 5.37966 21.17 21.4209
H 4.23479 21.8966 22.0941
M 4.61642 21.2455 21.7436
O 12.5958 8.21688 6.18053
H 13.3673 7.93984 5.68631
H 12.9488 8.71966 6.91458
M 12.8264 8.26318 6.22972
O 14.6625 6.57536 2.56065
H 15.0253 5.75101 2.23659
H 15.3875 7.19726 2.49939
M 14.8856 6.53383 2.48162
O 17.2817 2.43567 22.6377
H 18.2245 2.55934 22.5285
H 16.9256 2.51055 21.7524
M 17.402 2.4764 22.4337
O 7.90522 4.38118 9.92681
H 8.61106 4.22503 9.29941
H 7.12058 4.04471 9.49396
M 7.88906 4.28014 9.70934
O 12.7793 21.8298 23.3402
H 12.7938 21.6203 22.4063
H 11.8945 22.1587 23.4987
M 12.6008 21.8543 23.1811
O 11.4453 22.9505 6.61948
H 10.6466 22.7835 7.11983
H 11.1609 23.502 5.89055
M 11.2232 23.0294 6.57259
O 5.19748 18.008 20.9048
H 5.92349 18.583 20.6628
H 5.40745 17.1699 20.4928
M 5.38946 17.9541 20.7707
O 22.8636 9.6546 16.0361
H 23.3943 9.57372 16.8286
H 23.4999 9.6639 15.3211
M 23.103 9.63992 16.052
O 21.6197 7.78238 21.795
H 22.0389 8.58632 22.1019
H 20.8298 7.70422 22.3301
M 21.5436 7.93125 21.9677
O 5.7272 23.5026 13.1833
H 6.53309 23.5084 13.6998
H 5.98499 23.1293 12.3405
M 5.94537 23.4272 13.1164
O 16.7675 5.26537 9.62648
H 17.1662 5.82335 10.2943
H 17.1031 4.38886 9.81454
M 16.9181 5.20003 9.80202
O 7.36582 22.456 17.7893
H 6.79806 22.3642 18.5544
H 6.76537 22.6298 17.0644
M 7.12621 22.4728 17.7976
O 15.4473 23.2311 16.3988
H 16.2704 23.5013 15.9919
H 15.5312 23.5022 17.313
M 15.6333 23.3421 16.5029
O 3.76681 6.18025 17.2404
H 3.35644 6.91261 16.7805
H 4.31408 6.59284 17.9086
M 3.79489 6.41509 17.2831
O 18.1687 22.4825 17.8299
H 18.0196 21.766 17.213
H 17.6282 22.2624 18.5886
M 18.0273 22.2904 17.859
O 1.59047 13.4701 8.03267
H 1.49603 14.3826 7.75928
H 1.82305 13.5203 8.95983
M 1.6188 13.6676 8.16677
O 22.8508 10.8206 5.56818
H 21.9799 11.2145 5.51815
H 22.9441 10.3392 4.74612
M 22.6913 10.8026 5.38931
O 5.63529 4.87114 4.75684
H 5.37122 5.77976 4.90142
H 5.85901 4.8313 3.827
M 5.62702 5.04934 4.59577
O 22.5547 23.0043 19.3133
H 22.4428 22.8179 20.2455
H 23.501 22.9701 19.1736
M 22.7259 22.9591 19.4759
O 15.0923 6.79124 12.649
H 15.9566 7.11639 12.3969
H 15.0732 6.8744 13.6024
M 15.2656 6.87499 12.7928
O 18.839 22.3156 21.5331
H 19.757 22.4569 21.7645
H 18.8523 21.5555 20.9515
M 19.03 22.1887 21.4613
O 11.7145 18.6171 14.5922
H 12.2924 18.5498 15.3523
H 12.2514 18.3244 13.8558
M 11.9431 18.5433 14.5971
O 17.8586 1.49874 8.09396
H 16.9088 1.4994 7.9756
H 17.9828 1.58902 9.03877
M 17.6893 1.51739 8.26347
O 17.38 21.9902 10.6386
H 16.8887 21.3456 11.1478
H 16.828 22.1651 9.87636
M 17.166 21.8939 10.5867
O 8.39809 5.52185 16.9284
H 7.93845 5.73082 16.1152
H 8.9851 6.26456 17.0699
M 8.42422 5.71705 16.7906
O 21.4753 12.0563 22.0895
H 21.899 12.6101 22.7454
H 21.3493 11.216 22.5302
M 21.5364 11.9976 22.3145
O 3.5906 8.16545 3.71186
H 3.50981 8.6219 2.87439
H 4.19996 8.7014 4.21948
M 3.69902 8.369 3.6442
ITEM: TIMESTEP
1000
ITEM: NUMBER OF ATOMS
960
ITEM: BOX BOUNDS pp pp pp
0.0000000000000000e+00 2.5000000000000000e+01
0.0000000000000000e+00 2.5000000000000000e+01
0.0000000000000000e+00 2.5000000000000000e+01
ITEM: ATOMS element xu yu zu
H 14.6076 11.7749 19.8166
C 15.4505 11.0857 19.8693
H 15.3495 10.4917 18.961
H 16.3661 11.6746 19.8153
H 13.1359 10.1364 20.9724
C 14.0429 9.53612 21.0445
H 13.9794 8.92763 21.9466
H 14.0182 8.75114 20.2886
N 15.2947 10.2944 21.0869
H 14.3019 11.8786 22.1535
C 15.1755 11.2273 22.179
H 15.0336 10.7525 23.1498
H 16.0035 11.9105 22.368
H 16.3805 8.45007 20.7571
C 16.4214 9.38028 21.3238
H 16.3942 8.96736 22.3322
H 18.0706 9.99845 20.0939
C 17.8838 9.85326 21.1579
H 18.5392 9.05156 21.4983
H 18.8834 11.4877 21.3323
O 18.1589 11.0873 21.7882
H 7.16447 7.33292 9.89857
C 7.17328 7.29625 8.80922
H 7.58081 6.33075 8.5095
H 6.11197 7.24381 8.56639
H 9.29832 8.47068 9.63
C 9.20185 8.36758 8.54918
H 9.82713 9.13485 8.09265
H 9.79298 7.48766 8.2954
N 7.78749 8.41866 8.15307
H 7.23124 9.67234 9.68712
C 7.19201 9.73577 8.59968
H 7.70802 10.6247 8.23686
H 6.12663 9.89195 8.43029
H 8.26258 7.24428 6.46261
C 7.74158 8.17227 6.69815
H 8.27145 8.94675 6.14361
H 6.04456 6.92615 6.21549
C 6.38994 7.9336 5.98343
H 6.45891 7.85441 4.8985
H 4.61012 8.65283 5.94561
O 5.39838 8.8339 6.43437
H 9.84403 8.97813 1.97489
C 9.45265 9.70702 2.68456
H 8.64801 9.13712 3.14918
H 10.3067 9.84815 3.34692
H 8.26172 10.3616 0.220952
C 7.99051 10.8737 1.14415
H 7.52871 11.8078 0.82412
H 7.13248 10.3711 1.59055
N 9.14939 11.0025 2.09402
H 10.5103 11.0637 0.367233
C 10.3063 11.5133 1.339
H 10.1308 12.5556 1.07283
H 11.2831 11.5112 1.82267
H 7.63053 11.5981 3.36382
C 8.61172 11.9603 3.05695
H 8.40681 12.9155 2.57347
H 9.28435 11.4343 5.08878
C 9.45748 12.2304 4.36468
H 9.1196 13.1357 4.86898
H 11.2853 11.7621 4.72628
O 10.8158 12.3315 4.13601
H 12.0541 22.9726 0.24118
C 12.4946 23.1614 1.22016
H 12.0734 22.4427 1.92313
H 13.5629 22.9601 1.14199
H 10.5372 24.4409 0.365241
C 10.7587 24.7147 1.39676
H 10.3612 25.7076 1.60715
H 10.1445 24.0226 1.9728
N 12.1581 24.5513 1.6303
H 12.637 25.5215 -0.196743
C 12.8752 25.5205 0.866907
H 12.8358 26.5508 1.22056
H 13.9512 25.3465 0.872377
H 11.9286 23.9651 3.5448
C 12.4089 24.8256 3.07889
H 11.9359 25.7572 3.38936
H 13.904 24.7437 4.69066
C 13.886 24.864 3.60746
H 14.2839 25.8586 3.4064
H 14.4726 23.0809 3.57402
O 14.6539 23.8194 3.01294
H 24.1596 13.1123 15.7289
C 23.9436 13.4892 14.7292
H 23.8203 14.5708 14.7845
H 24.7682 13.2218 14.0685
H 22.1748 12.6143 16.2809
C 21.8463 13.0397 15.3326
H 20.919 12.4924 15.1629
H 21.5324 14.0599 15.5531
N 22.7298 12.834 14.2248
H 23.0664 10.8576 14.847
C 22.8484 11.4246 13.9419
H 21.9376 10.9229 13.6151
H 23.6574 11.2026 13.246
H 21.8315 14.4988 13.2591
C 22.2234 13.5155 12.9991
H 21.334 13.001 12.6354
H 24.1717 14.1314 12.2004
C 23.2186 13.7297 11.8567
H 22.7473 14.5004 11.2468
H 22.5563 12.3391 10.6882
O 23.3734 12.4989 11.1353
H 14.6202 16.1938 2.52818
C 13.744 16.588 3.04295
H 13.733 15.9895 3.95388
H 14.0369 17.5913 3.35239
H 12.922 14.4695 1.56615
C 12.1955 15.0249 2.1592
H 11.216 14.7941 1.74023
H 12.2262 14.4808 3.10318
N 12.4526 16.4588 2.38721
H 12.8626 16.5812 0.296051
C 12.5253 17.21 1.12004
H 11.5304 17.5396 0.820662
H 13.0877 18.1426 1.16604
H 11.3276 16.3022 4.12904
C 11.2877 16.8968 3.21643
H 10.3326 16.6755 2.74015
H 12.3244 18.7485 4.07181
C 11.3492 18.4423 3.69324
H 10.6934 18.6996 4.52506
H 10.5554 19.9973 2.913
O 10.946 19.2108 2.56397
H 21.685 23.6663 2.65406
C 20.6641 23.8716 2.33193
H 20.6617 23.5393 1.2938
H 20.1029 23.0971 2.85477
H 22.0344 26.2575 2.83976
C 21.129 26.2419 2.23307
H 20.741 27.2522 2.36333
H 21.4071 26.2496 1.17918
N 20.1591 25.2221 2.62195
H 20.7411 25.1829 4.71364
C 19.8705 25.2768 4.06454
H 19.4516 26.2232 4.40661
H 19.1872 24.52 4.4499
H 19.2214 25.5234 0.726041
C 18.9964 25.4848 1.79187
H 18.7042 26.5192 1.97285
H 18.2064 23.4872 2.01411
C 17.8526 24.5122 1.90258
H 17.1571 24.5675 1.06515
H 16.3646 24.2761 3.07473
O 17.1736 24.7641 3.09307
H 4.8538 17.0959 5.87823
C 4.56154 17.1064 4.8282
H 3.47827 17.2222 4.86324
H 4.93152 18.0853 4.52306
H 4.47397 14.5872 5.77918
C 4.26462 14.7172 4.7174
H 4.60247 13.8285 4.18438
H 3.19419 14.7808 4.52181
N 4.9827 15.8941 4.11329
H 6.67053 15.4083 5.35911
C 6.44619 15.7159 4.33778
H 6.87185 14.9848 3.65042
H 6.97255 16.6598 4.196
H 3.50365 16.1876 2.55834
C 4.57641 16.0547 2.69836
H 4.83788 15.1773 2.10692
H 4.97017 18.2407 2.37882
C 5.1919 17.2751 1.92427
H 4.71161 17.3716 0.950551
H 6.74228 17.6652 0.869622
O 6.57913 17.1608 1.65189
H 19.5477 20.1429 13.0082
C 18.6373 20.0983 12.4105
H 17.8675 20.2385 13.1693
H 18.6316 21.033 11.8498
H 19.5663 17.6852 13.1348
C 18.7026 17.7126 12.4705
H 18.8702 16.8383 11.8416
H 17.8451 17.5331 13.1191
N 18.5793 18.9072 11.6333
H 20.7711 18.7643 11.3203
C 19.814 18.9473 10.8318
H 19.7352 18.1678 10.074
H 19.9229 19.8686 10.2597
H 16.539 18.5739 11.6621
C 17.3459 18.6559 10.9337
H 17.3843 17.7181 10.3795
H 16.7065 20.6972 10.5549
C 16.9245 19.8088 9.96217
H 16.023 19.4993 9.43334
H 17.5436 20.9447 8.62986
O 17.901 20.1565 9.00951
H 7.93044 11.9902 17.9146
C 8.63925 12.8054 17.7691